
 Distributed Data Interface kickoff program.
 Initiating 1 compute processes on 1 nodes to run the following command:
 /k/tris/src/gamess/gamess.00.x methanol 

          ******************************************************
          *         GAMESS VERSION = 11 APR 2008 (R1)          *
          *             FROM IOWA STATE UNIVERSITY             *
          * M.W.SCHMIDT, K.K.BALDRIDGE, J.A.BOATZ, S.T.ELBERT, *
          *   M.S.GORDON, J.H.JENSEN, S.KOSEKI, N.MATSUNAGA,   *
          *          K.A.NGUYEN, S.J.SU, T.L.WINDUS,           *
          *       TOGETHER WITH M.DUPUIS, J.A.MONTGOMERY       *
          *         J.COMPUT.CHEM.  14, 1347-1363(1993)        *
          **************** 64 BIT INTEL VERSION ****************

     SINCE 1993, STUDENTS AND POSTDOCS WORKING AT IOWA STATE UNIVERSITY
     AND ALSO IN THEIR VARIOUS JOBS AFTER LEAVING ISU HAVE MADE IMPORTANT
     CONTRIBUTIONS TO THE CODE:
     IVANA ADAMOVIC, CHRISTINE AIKENS, YURI ALEXEEV, POOJA ARORA, ROB BELL,
     PRADIPTA BANDYOPADHYAY, JONATHAN BENTZ, BRETT BODE, GALINA CHABAN,
     WEI CHEN, CHEOL HO CHOI, PAUL DAY, TIM DUDLEY, DMITRI FEDOROV,
     GRAHAM FLETCHER, MARK FREITAG, KURT GLAESEMANN, DAN KEMP, GRANT MERRILL,
     JONATHAN MULLIN, TAKESHI NAGATA, SEAN NEDD, HEATHER NETZLOFF,
     BOSILJKA NJEGIC, RYAN OLSON, MIKE PAK, JIM SHOEMAKER, LYUDMILA SLIPCHENKO,
     SAROM SOK, JIE SONG, TETSUYA TAKETSUGU, SIMON WEBB, SOOHAENG YOO.

     ADDITIONAL CODE HAS BEEN PROVIDED BY COLLABORATORS IN OTHER GROUPS:
     IOWA STATE UNIVERSITY: JOE IVANIC, KLAUS RUEDENBERG
     UNIVERSITY OF TOKYO: KIMIHIKO HIRAO, TAKAHITO NAKAJIMA,
          TAKAO TSUNEDA, MUNEAKI KAMIYA, SUSUMU YANAGISAWA,
          KIYOSHI YAGI, MAHITO CHIBA, SEIKEN TOKURA, NAOAKI KAWAKAMI
     UNIVERSITY OF AARHUS: FRANK JENSEN
     UNIVERSITY OF IOWA: VISVALDAS KAIRYS, HUI LI
     NATIONAL INST. OF STANDARDS AND TECHNOLOGY: WALT STEVENS, DAVID GARMER
     UNIVERSITY OF PISA: BENEDETTA MENNUCCI, JACOPO TOMASI
     UNIVERSITY OF MEMPHIS: HENRY KURTZ, PRAKASHAN KORAMBATH
     UNIVERSITY OF ALBERTA: MARIUSZ KLOBUKOWSKI
     UNIVERSITY OF NEW ENGLAND: MARK SPACKMAN
     MIE UNIVERSITY: HIROAKI UMEDA
     MICHIGAN STATE UNIVERSITY:
          KAROL KOWALSKI, MARTA WLOCH, JEFFREY R. GOUR, PIOTR PIECUCH
     UNIVERSITY OF SILESIA: MONIKA MUSIAL, STANISLAW KUCHARSKI
     FACULTES UNIVERSITAIRES NOTRE-DAME DE LA PAIX:
          OLIVIER QUINET, BENOIT CHAMPAGNE
     UNIVERSITY OF CALIFORNIA - SANTA BARBARA: BERNARD KIRTMAN
     INSTITUTE FOR MOLECULAR SCIENCE: KAZUYA ISHIMURA AND SHIGERU NAGASE
     UNIVERSITY OF NOTRE DAME: DAN CHIPMAN
     KYUSHU UNIVERSITY:
          HARUYUKI NAKANO,
          FENG LONG GU, JACEK KORCHOWIEC, MARCIN MAKOWSKI, AND YURIKO AOKI,
          HIROTOSHI MORI AND EISAKU MIYOSHI
     PENNSYLVANIA STATE UNIVERSITY:
          TZVETELIN IORDANOV, CHET SWALINA, JONATHAN SKONE,
          SHARON HAMMES-SCHIFFER

 EXECUTION OF GAMESS BEGUN Mon Jun 16 10:07:09 2008

            ECHO OF THE FIRST FEW INPUT CARDS -
 INPUT CARD> $SYSTEM MEMDDI=8 $END                                                          
 INPUT CARD> $CONTRL SCFTYP=RHF RUNTYP=OPTIMIZE COORD=CART ICHARG=0 MULT=1 $END             
 INPUT CARD> $STATPT NSTEP=100 $END                                                         
 INPUT CARD> $SYSTEM TIMLIM=1200 MWORDS=96 $END                                             
 INPUT CARD> $SCF DIRSCF=.TRUE. $END                                                        
 INPUT CARD> $BASIS GBASIS=N31 NGAUSS=6 NDFUNC=1 $END                                       
 INPUT CARD> $GUESS GUESS=HUCKEL $END                                                       
 INPUT CARD> $DATA                                                                          
 INPUT CARD>Methanol                                                                        
 INPUT CARD>C1                                                                              
 INPUT CARD>    Carbon     6    -0.089318     0.334942     0.000000                         
 INPUT CARD>  Hydrogen     1    -0.089318     1.414942     0.000000                         
 INPUT CARD>  Hydrogen     1    -0.089318    -0.025569    -1.018053                         
 INPUT CARD>    Oxygen     8     0.792655    -0.024802     0.509026                         
 INPUT CARD>  Hydrogen     1    -0.971291    -0.024802     0.509026                         
 INPUT CARD>  Hydrogen     1     1.595954    -0.144887    -0.202795                         
 INPUT CARD>$END                                                                            
   96000000 WORDS OF MEMORY AVAILABLE

     BASIS OPTIONS
     -------------
     GBASIS=N31          IGAUSS=       6      POLAR=POPN31  
     NDFUNC=       1     NFFUNC=       0     DIFFSP=       F
     NPFUNC=       0      DIFFS=       F


     RUN TITLE
     ---------
 Methanol                                                                        

 THE POINT GROUP OF THE MOLECULE IS C1      
 THE ORDER OF THE PRINCIPAL AXIS IS     0

 THE MOMENTS OF INERTIA ARE (AMU-ANGSTROM**2)
 IXX=     4.053   IYY=    13.087   IZZ=    14.005

 ATOM      ATOMIC                      COORDINATES (BOHR)
           CHARGE         X                   Y                   Z
 CARBON      6.0    -1.0414938056        0.0455719804        0.0000615889
 HYDROGEN    1.0    -1.7177233915        0.1135916829        1.9244774163
 HYDROGEN    1.0    -1.5484351760        1.7728376056       -0.9616315248
 OXYGEN      8.0     0.9888366795       -0.1619033690       -0.0001257514
 HYDROGEN    1.0    -1.8886546802       -1.5422362159       -0.9624723163
 HYDROGEN    1.0     1.8621503084        1.6827124435        0.0008888613

          INTERNUCLEAR DISTANCES (ANGS.)
          ------------------------------

                1 CARB       2 HYDR       3 HYDR       4 OXYG       5 HYDR  

   1 CARB    0.0000000    1.0800000 *  1.0800000 *  1.0799998 *  1.0799998 *
   2 HYDR    1.0800000 *  0.0000000    1.7639455 *  1.7634757 *  1.7634757 *
   3 HYDR    1.0800000 *  1.7639455 *  0.0000000    1.7634759 *  1.7634759 *
   4 OXYG    1.0799998 *  1.7634757 *  1.7634759 *  0.0000000    1.7639460 *
   5 HYDR    1.0799998 *  1.7634757 *  1.7634759 *  1.7639460 *  0.0000000  
   6 HYDR    1.7639454 *  2.3052839 *  1.8759062 *  1.0799995 *  2.6668064 *

                6 HYDR  

   1 CARB    1.7639454 *
   2 HYDR    2.3052839 *
   3 HYDR    1.8759062 *
   4 OXYG    1.0799995 *
   5 HYDR    2.6668064 *
   6 HYDR    0.0000000  

  * ... LESS THAN  3.000


     ATOMIC BASIS SET
     ----------------
 THE CONTRACTED PRIMITIVE FUNCTIONS HAVE BEEN UNNORMALIZED
 THE CONTRACTED BASIS FUNCTIONS ARE NOW NORMALIZED TO UNITY

  SHELL TYPE  PRIMITIVE        EXPONENT          CONTRACTION COEFFICIENT(S)

 CARBON    

      1   S       1          3047.5248800    0.001834737132
      1   S       2           457.3695180    0.014037322813
      1   S       3           103.9486850    0.068842622264
      1   S       4            29.2101553    0.232184443216
      1   S       5             9.2866630    0.467941348435
      1   S       6             3.1639270    0.362311985337

      2   L       7             7.8682723   -0.119332419775    0.068999066591
      2   L       8             1.8812885   -0.160854151696    0.316423960957
      2   L       9             0.5442493    1.143456437840    0.744308290898

      3   L      10             0.1687145    1.000000000000    1.000000000000

      4   D      11             0.8000000    1.000000000000

 HYDROGEN  

      5   S      12            18.7311370    0.033494604338
      5   S      13             2.8253944    0.234726953484
      5   S      14             0.6401217    0.813757326146

      6   S      15             0.1612778    1.000000000000

 HYDROGEN  

      7   S      16            18.7311370    0.033494604338
      7   S      17             2.8253944    0.234726953484
      7   S      18             0.6401217    0.813757326146

      8   S      19             0.1612778    1.000000000000

 OXYGEN    

      9   S      20          5484.6716600    0.001831074430
      9   S      21           825.2349460    0.013950172200
      9   S      22           188.0469580    0.068445078098
      9   S      23            52.9645000    0.232714335992
      9   S      24            16.8975704    0.470192897984
      9   S      25             5.7996353    0.358520852987

     10   L      26            15.5396162   -0.110777549525    0.070874268231
     10   L      27             3.5999336   -0.148026262701    0.339752839147
     10   L      28             1.0137618    1.130767015354    0.727158577316

     11   L      29             0.2700058    1.000000000000    1.000000000000

     12   D      30             0.8000000    1.000000000000

 HYDROGEN  

     13   S      31            18.7311370    0.033494604338
     13   S      32             2.8253944    0.234726953484
     13   S      33             0.6401217    0.813757326146

     14   S      34             0.1612778    1.000000000000

 HYDROGEN  

     15   S      35            18.7311370    0.033494604338
     15   S      36             2.8253944    0.234726953484
     15   S      37             0.6401217    0.813757326146

     16   S      38             0.1612778    1.000000000000

 TOTAL NUMBER OF BASIS SET SHELLS             =   16
 NUMBER OF CARTESIAN GAUSSIAN BASIS FUNCTIONS =   38
 NUMBER OF ELECTRONS                          =   18
 CHARGE OF MOLECULE                           =    0
 SPIN MULTIPLICITY                            =    1
 NUMBER OF OCCUPIED ORBITALS (ALPHA)          =    9
 NUMBER OF OCCUPIED ORBITALS (BETA )          =    9
 TOTAL NUMBER OF ATOMS                        =    6
 THE NUCLEAR REPULSION ENERGY IS       46.8698378983

     $CONTRL OPTIONS
     ---------------
 SCFTYP=RHF          RUNTYP=OPTIMIZE     EXETYP=RUN     
 MPLEVL=       0     CITYP =NONE         CCTYP =NONE         VBTYP =NONE    
 DFTTYP=NONE         TDDFT =NONE    
 MULT  =       1     ICHARG=       0     NZVAR =       0     COORD =CART    
 PP    =NONE         RELWFN=NONE         LOCAL =NONE         NUMGRD=       F
 ISPHER=      -1     NOSYM =       0     MAXIT =      30     UNITS =ANGS    
 PLTORB=       F     MOLPLT=       F     AIMPAC=       F     FRIEND=        
 NPRINT=       7     IREST =       0     GEOM  =INPUT   
 NORMF =       0     NORMP =       0     ITOL  =      20     ICUT  =       9
 INTTYP=BEST         GRDTYP=BEST         QMTTOL= 1.0E-06

     $SYSTEM OPTIONS
     ---------------
  REPLICATED MEMORY=    96000000 WORDS (ON EVERY NODE).
 DISTRIBUTED MEMDDI=           8 MILLION WORDS IN AGGREGATE,
 MEMDDI DISTRIBUTED OVER   1 PROCESSORS IS     8000000 WORDS/PROCESSOR.
 TOTAL MEMORY REQUESTED ON EACH PROCESSOR=   104000000 WORDS.
 TIMLIM=        1200.00 MINUTES, OR     0.83 DAYS.
 PARALL= F  BALTYP=  NXTVAL  KDIAG=    0  COREFL= F

          ----------------
          PROPERTIES INPUT
          ----------------

     MOMENTS            FIELD           POTENTIAL          DENSITY
 IEMOM =       1   IEFLD =       0   IEPOT =       0   IEDEN =       0
 WHERE =COMASS     WHERE =NUCLEI     WHERE =NUCLEI     WHERE =NUCLEI  
 OUTPUT=BOTH       OUTPUT=BOTH       OUTPUT=BOTH       OUTPUT=BOTH    
 IEMINT=       0   IEFINT=       0                     IEDINT=       0
                                                       MORB  =       0
          EXTRAPOLATION IN EFFECT
          SOSCF IN EFFECT
 ORBITAL PRINTING OPTION: NPREO=   1  38   2   1

     -------------------------------
     INTEGRAL TRANSFORMATION OPTIONS
     -------------------------------
     NWORD  =         0     CUTOFF = 1.0E-09
     MPTRAN =         0     DIRTRF =       T
     AOINTS =DUP     

          ----------------------
          INTEGRAL INPUT OPTIONS
          ----------------------
 NOPK  =       1 NORDER=       0 SCHWRZ=       T

     ------------------------------------------
     THE POINT GROUP IS C1 , NAXIS= 0, ORDER= 1
     ------------------------------------------

     DIMENSIONS OF THE SYMMETRY SUBSPACES ARE
 A   =   38

 ..... DONE SETTING UP THE RUN .....
 STEP CPU TIME =     0.00 TOTAL CPU TIME =        0.0 (    0.0 MIN)
 TOTAL WALL CLOCK TIME=        0.0 SECONDS, CPU UTILIZATION IS   0.00%


          -----------------------------
          STATIONARY POINT LOCATION RUN
          -----------------------------

 OBTAINING INITIAL HESSIAN, HESS=GUESS   
 CARTESIAN COORDINATE OPTIMIZATION USING BADGER'S RULE FORCE CONSTANT GUESS

          PARAMETERS CONTROLLING GEOMETRY SEARCH ARE
          METHOD =QA                  UPHESS =BFGS    
          NNEG   =         0          NFRZ   =         0
          NSTEP  =       100          IFOLOW =         1
          HESS   =GUESS               RESTAR =         F
          IHREP  =         0          HSSEND =         F
          NPRT   =         0          NPUN   =         0
          OPTTOL = 1.000E-04          RMIN   = 1.500E-03
          RMAX   = 1.000E-01          RLIM   = 7.000E-02
          DXMAX  = 3.000E-01          PURIFY =         F
          MOVIE  =         F          TRUPD  =         T
          TRMAX  = 5.000E-01          TRMIN  = 5.000E-02
          ITBMAT =         5          STPT   =         F
          STSTEP = 1.000E-02          PROJCT=          T

 BEGINNING GEOMETRY SEARCH POINT NSERCH=   0 ...

 COORDINATES OF ALL ATOMS ARE (ANGS)
   ATOM   CHARGE       X              Y              Z
 ------------------------------------------------------------
 CARBON      6.0  -0.5511348271   0.0241156552   0.0000325915
 HYDROGEN    1.0  -0.9089801393   0.0601101343   1.0183896654
 HYDROGEN    1.0  -0.8193966671   0.9381453275  -0.5088735251
 OXYGEN      8.0   0.5232698740  -0.0856755795  -0.0000665448
 HYDROGEN    1.0  -0.9994330885  -0.8161163184  -0.5093184528
 HYDROGEN    1.0   0.9854075779   0.8904531421   0.0004703652

          ********************
          1 ELECTRON INTEGRALS
          ********************
 ...... END OF ONE-ELECTRON INTEGRALS ......
 STEP CPU TIME =     0.00 TOTAL CPU TIME =        0.0 (    0.0 MIN)
 TOTAL WALL CLOCK TIME=        0.0 SECONDS, CPU UTILIZATION IS   0.00%

          -------------
          GUESS OPTIONS
          -------------
          GUESS =HUCKEL            NORB  =       0          NORDER=       0
          MIX   =       F          PRTMO =       F          PUNMO =       F
          TOLZ  = 1.0E-08          TOLE  = 1.0E-05
          SYMDEN=       F          PURIFY=       F

 INITIAL GUESS ORBITALS GENERATED BY HUCKEL   ROUTINE.
 HUCKEL GUESS REQUIRES     15624 WORDS.

 SYMMETRIES FOR INITIAL GUESS ORBITALS FOLLOW.   BOTH SET(S).
     9 ORBITALS ARE OCCUPIED (    2 CORE ORBITALS).
     3=A        4=A        5=A        6=A        7=A        8=A        9=A   
    10=A       11=A       12=A       13=A       14=A       15=A       16=A   
    17=A       18=A       19=A   
 ...... END OF INITIAL ORBITAL SELECTION ......
 STEP CPU TIME =     0.01 TOTAL CPU TIME =        0.0 (    0.0 MIN)
 TOTAL WALL CLOCK TIME=        0.0 SECONDS, CPU UTILIZATION IS  25.00%

                    ----------------------
                    AO INTEGRAL TECHNOLOGY
                    ----------------------
     S,P,L SHELL ROTATED AXIS INTEGRALS, REPROGRAMMED BY
        KAZUYA ISHIMURA (IMS) AND JOSE SIERRA (SYNSTAR).
     S,P,D,L SHELL ROTATED AXIS INTEGRALS PROGRAMMED BY
        KAZUYA ISHIMURA (INSTITUTE FOR MOLECULAR SCIENCE).
     S,P,D,F,G SHELL TO TOTAL QUARTET ANGULAR MOMENTUM SUM 5,
        ERIC PROGRAM BY GRAHAM FLETCHER (ELORET AND NASA ADVANCED
        SUPERCOMPUTING DIVISION, AMES RESEARCH CENTER).
     S,P,D,F,G,L SHELL GENERAL RYS QUADRATURE PROGRAMMED BY
        MICHEL DUPUIS (PACIFIC NORTHWEST NATIONAL LABORATORY).

          --------------------
          2 ELECTRON INTEGRALS
          --------------------

 DIRECT SCF METHOD SKIPS INTEGRAL STORAGE ON DISK.
 DIRECT TRANSFORMATION SKIPS AO INTEGRAL STORAGE ON DISK.
  ...... END OF TWO-ELECTRON INTEGRALS .....
 STEP CPU TIME =     0.01 TOTAL CPU TIME =        0.0 (    0.0 MIN)
 TOTAL WALL CLOCK TIME=        0.1 SECONDS, CPU UTILIZATION IS  14.29%

          --------------------------
                 RHF SCF CALCULATION
          --------------------------

     NUCLEAR ENERGY =        46.8698378983
     MAXIT =   30     NPUNCH=    2
     EXTRAP=T  DAMP=F  SHIFT=F  RSTRCT=F  DIIS=F  DEM=F  SOSCF=T
     DENSITY MATRIX CONV=  2.00E-05
     SOSCF WILL OPTIMIZE     261 ORBITAL ROTATIONS, SOGTOL=   0.250
     MEMORY REQUIRED FOR RHF ITERS=     57352 WORDS.

 DIRECT SCF CALCULATION, SCHWRZ=T   FDIFF=T,  DIRTHR=  0.00E+00 NITDIR=10
 SCHWARZ INEQUALITY OVERHEAD:       741 INTEGRALS, T=        0.01

                                                                                   NONZERO     BLOCKS
 ITER EX DEM     TOTAL ENERGY        E CHANGE  DENSITY CHANGE     ORB. GRAD      INTEGRALS    SKIPPED
   1  0  0     -114.4203758771  -114.4203758771   0.180163540   0.000000000         262722          0
          ---------------START SECOND ORDER SCF---------------
   2  1  0     -114.8272319485    -0.4068560713   0.104360903   0.065411924         262721          1
   3  2  0     -114.8547222353    -0.0274902868   0.026327997   0.020739396         262720          2
   4  3  0     -114.8604185200    -0.0056962847   0.007352042   0.003357684         262720          2
   5  4  0     -114.8606207348    -0.0002022148   0.003730348   0.001057727         262715          7
   6  5  0     -114.8606478547    -0.0000271199   0.000850819   0.000678809         262712         10
   7  6  0     -114.8606509864    -0.0000031316   0.000326378   0.000162904         262703         19
   8  7  0     -114.8606513451    -0.0000003588   0.000099521   0.000025735         262679         35
   9  8  0     -114.8606513633    -0.0000000182   0.000043431   0.000011780         262591         68
  10  9  0     -114.8606513657    -0.0000000024   0.000013079   0.000003376         262450        101
  11 10  0     -114.8606513659    -0.0000000001   0.000007356   0.000001611         261935        223

          -----------------
          DENSITY CONVERGED
          -----------------
     TIME TO FORM FOCK OPERATORS=       0.8 SECONDS (       0.1 SEC/ITER)
     FOCK TIME ON FIRST ITERATION=       0.1, LAST ITERATION=       0.1
     TIME TO SOLVE SCF EQUATIONS=       0.0 SECONDS (       0.0 SEC/ITER)

 FINAL RHF ENERGY IS     -114.8606513659 AFTER  11 ITERATIONS

          ------------
          EIGENVECTORS
          ------------

                      1          2          3          4          5
                  -20.5663   -11.2446    -1.5271    -0.8932    -0.7657
                     A          A          A          A          A   
    1  C  1  S   -0.000022   0.995263  -0.122539   0.153349  -0.045835
    2  C  1  S   -0.000127   0.030432   0.215065  -0.296448   0.079934
    3  C  1  X   -0.000600   0.002456   0.200712   0.037610  -0.175184
    4  C  1  Y   -0.000003  -0.000152  -0.013318   0.050500   0.276898
    5  C  1  Z   -0.000004  -0.000044  -0.000837   0.002418  -0.018299
    6  C  1  S   -0.000702  -0.009059   0.076046  -0.267118   0.145623
    7  C  1  X   -0.000657   0.001215  -0.005579   0.028232  -0.023643
    8  C  1  Y    0.000386  -0.000017   0.000592  -0.009395   0.079425
    9  C  1  Z    0.000019  -0.000027   0.003186   0.001496   0.007511
   10  C  1 XX   -0.000951  -0.001467   0.033502   0.003307  -0.018763
   11  C  1 YY    0.000096  -0.002947  -0.018526  -0.011818   0.016892
   12  C  1 ZZ    0.000077  -0.003052  -0.019632  -0.008176   0.014660
   13  C  1 XY    0.000039  -0.000117  -0.003906   0.005721   0.020198
   14  C  1 XZ   -0.000006  -0.000001  -0.000042  -0.000452  -0.001848
   15  C  1 YZ   -0.000019   0.000002  -0.000158  -0.002314  -0.013342
   16  H  2  S   -0.000080   0.000103   0.026326  -0.111328   0.067932
   17  H  2  S   -0.000110   0.002149  -0.007958  -0.033510   0.024939
   18  H  3  S   -0.000111   0.000078   0.028931  -0.097975   0.180713
   19  H  3  S   -0.000176   0.002076  -0.001691  -0.022141   0.112560
   20  O  4  S    0.994440  -0.000900  -0.197932  -0.082392   0.043484
   21  O  4  S    0.021985   0.000522   0.428708   0.179851  -0.100471
   22  O  4  X   -0.001625  -0.000640  -0.152030   0.300589   0.134806
   23  O  4  Y    0.001165   0.000141   0.049498   0.099157   0.349567
   24  O  4  Z    0.000027   0.000003   0.000182   0.000157  -0.022787
   25  O  4  S    0.005648  -0.001740   0.316999   0.313964  -0.123806
   26  O  4  X   -0.000485   0.001907  -0.015788   0.140405   0.059225
   27  O  4  Y   -0.000491  -0.000544   0.029676   0.072973   0.219545
   28  O  4  Z   -0.000017   0.000013  -0.000914  -0.000103  -0.016310
   29  O  4 XX   -0.003628   0.000013   0.019132  -0.017035  -0.012978
   30  O  4 YY   -0.004562  -0.000316   0.011406   0.025795   0.032932
   31  O  4 ZZ   -0.004300  -0.000105  -0.002633   0.001143  -0.006904
   32  O  4 XY   -0.000271  -0.000098  -0.000659   0.015979  -0.008678
   33  O  4 XZ   -0.000004  -0.000009   0.000054  -0.000007   0.001710
   34  O  4 YZ   -0.000009   0.000002  -0.000007   0.000087  -0.000724
   35  H  5  S   -0.000035   0.000093   0.026832  -0.130326  -0.011960
   36  H  5  S   -0.000002   0.002131  -0.004108  -0.046714  -0.006305
   37  H  6  S    0.000450   0.000444   0.069649   0.148348   0.158496
   38  H  6  S   -0.000186  -0.000003  -0.007416   0.056178   0.071713

                      6          7          8          9         10
                   -0.7176    -0.6829    -0.4358    -0.3857     0.1684
                     A          A          A          A          A   
    1  C  1  S   -0.003412  -0.013315  -0.008132   0.001156   0.026346
    2  C  1  S    0.005834   0.023250   0.017188  -0.003426  -0.011298
    3  C  1  X   -0.006907  -0.360223   0.003918   0.002961   0.069623
    4  C  1  Y    0.016395  -0.146505  -0.319917  -0.005911  -0.118844
    5  C  1  Z    0.353891   0.002102   0.000643  -0.268987   0.025350
    6  C  1  S    0.014121   0.127121  -0.034975  -0.009097  -0.585253
    7  C  1  X   -0.001700  -0.074389  -0.045145   0.002007   0.165466
    8  C  1  Y    0.017887  -0.071927  -0.192237  -0.002918  -0.282138
    9  C  1  Z    0.111235  -0.006825   0.001257  -0.169357   0.094110
   10  C  1 XX   -0.000833  -0.030316   0.004571  -0.000140  -0.010995
   11  C  1 YY   -0.014787   0.027102  -0.008667   0.023687   0.016713
   12  C  1 ZZ    0.015696   0.028587  -0.002944  -0.023967   0.005878
   13  C  1 XY   -0.000552   0.002236   0.037574   0.002671  -0.015152
   14  C  1 XZ    0.018200   0.001464   0.002319   0.049364  -0.001804
   15  C  1 YZ   -0.001650   0.010380   0.027699  -0.006015  -0.002637
   16  H  2  S    0.156004   0.089376  -0.001591  -0.255150  -0.003517
   17  H  2  S    0.097454   0.068883  -0.010635  -0.308267   0.156390
   18  H  3  S   -0.069619   0.017443  -0.224553   0.128152   0.030719
   19  H  3  S   -0.056702   0.014601  -0.249732   0.157523   0.624135
   20  O  4  S    0.002738  -0.031853   0.038027   0.001285   0.069329
   21  O  4  S   -0.005472   0.082014  -0.087774  -0.002184  -0.069886
   22  O  4  X    0.002216   0.409934  -0.088027  -0.004066  -0.132586
   23  O  4  Y    0.020335  -0.213374   0.355712  -0.004359  -0.227531
   24  O  4  Z    0.446457   0.004800  -0.006035   0.471270  -0.014475
   25  O  4  S   -0.011482   0.173030  -0.167228  -0.008901  -0.799179
   26  O  4  X    0.001097   0.222989  -0.083095  -0.006949  -0.273135
   27  O  4  Y    0.009445  -0.122848   0.318512  -0.004775  -0.421406
   28  O  4  Z    0.271835   0.004925  -0.003604   0.436562  -0.038595
   29  O  4 XX   -0.000313  -0.012493   0.005033   0.000870   0.045882
   30  O  4 YY    0.001774   0.005369   0.025357   0.003123   0.017086
   31  O  4 ZZ    0.000048   0.012517  -0.010018  -0.002456   0.030521
   32  O  4 XY   -0.000587   0.031823   0.005435   0.000559   0.011798
   33  O  4 XZ   -0.026601  -0.000133   0.000411  -0.005904   0.000067
   34  O  4 YZ    0.016864   0.000265   0.003061   0.016110  -0.002459
   35  H  5  S   -0.077564   0.161751   0.215068   0.128164  -0.035794
   36  H  5  S   -0.040656   0.100200   0.213737   0.154084  -0.100866
   37  H  6  S    0.009054   0.035354   0.169431   0.005657   0.135679
   38  H  6  S    0.005241   0.043445   0.176888   0.012909   1.266719

                     11         12         13         14         15
                    0.2881     0.3551     0.3580     0.4277     0.7483
                     A          A          A          A          A   
    1  C  1  S   -0.124966  -0.024477  -0.014516  -0.032209   0.000005
    2  C  1  S    0.104632   0.004276   0.013058  -0.005321  -0.017676
    3  C  1  X   -0.175829   0.019785   0.013513   0.001541  -0.012785
    4  C  1  Y   -0.060987   0.304060   0.091519  -0.054840   0.046159
    5  C  1  Z    0.007468   0.114857  -0.353275   0.058150  -0.753478
    6  C  1  S    2.452814   0.950886   0.669578   2.654690  -0.027210
    7  C  1  X   -0.689495   0.516381   0.356180   2.067448   0.047574
    8  C  1  Y   -0.217726   1.514222   0.444970  -0.739405  -0.150553
    9  C  1  Z    0.053808   0.612682  -1.606857   0.169856   1.980530
   10  C  1 XX   -0.013326  -0.001840  -0.000499  -0.000357  -0.007873
   11  C  1 YY   -0.003177   0.008096  -0.007169   0.003803   0.085850
   12  C  1 ZZ   -0.010214  -0.005545   0.010783   0.007364  -0.078984
   13  C  1 XY   -0.006844   0.007383   0.000006   0.001993   0.011267
   14  C  1 XZ    0.000151   0.002778  -0.006069   0.000537   0.014702
   15  C  1 YZ   -0.002322   0.012362   0.002653  -0.006254  -0.009748
   16  H  2  S   -0.007082  -0.009572   0.012468   0.062967  -0.403102
   17  H  2  S   -1.267828  -0.929495   1.757304  -0.450741  -0.615182
   18  H  3  S    0.015406  -0.008843  -0.000148   0.061817   0.249295
   19  H  3  S   -0.891513  -1.462097  -1.594003   0.412736   0.394324
   20  O  4  S    0.014073   0.032055   0.028154   0.079567   0.000267
   21  O  4  S    0.015494   0.007808  -0.004339   0.028682   0.020354
   22  O  4  X   -0.023411   0.003102  -0.005025   0.139268   0.026543
   23  O  4  Y   -0.062756  -0.130477  -0.055613   0.090139   0.021599
   24  O  4  Z   -0.004948  -0.047354   0.103145  -0.007790  -0.129525
   25  O  4  S   -0.268533  -0.777952  -0.636518  -2.406446  -0.022863
   26  O  4  X    0.015967   0.116239   0.123366   0.981104  -0.032298
   27  O  4  Y   -0.083670  -0.512010  -0.207303   0.251166   0.022934
   28  O  4  Z   -0.017386  -0.160708   0.425500  -0.043133  -0.321809
   29  O  4 XX    0.023932   0.013675   0.007515  -0.003656   0.011837
   30  O  4 YY    0.010014   0.017273   0.004728   0.083112   0.040359
   31  O  4 ZZ    0.008849   0.027176   0.031212   0.075823  -0.021943
   32  O  4 XY    0.008847  -0.007301  -0.000291   0.002609  -0.001401
   33  O  4 XZ    0.000254   0.000237   0.007520  -0.003462   0.078973
   34  O  4 YZ   -0.001858   0.010408   0.008963  -0.005390  -0.008176
   35  H  5  S   -0.015198   0.029798   0.003361   0.039981   0.187387
   36  H  5  S   -1.518173   1.672755  -0.614423  -0.568643   0.279923
   37  H  6  S    0.060723  -0.015402  -0.018139  -0.000526   0.037997
   38  H  6  S    0.429287   0.308124   0.280388  -0.744377  -0.100966

                     16         17         18         19         20
                    0.7599     0.9242     1.0685     1.1187     1.1315
                     A          A          A          A          A   
    1  C  1  S   -0.007328  -0.016872   0.015144  -0.024147  -0.003970
    2  C  1  S   -0.095698  -0.345505   0.146676  -0.479291  -0.141815
    3  C  1  X   -0.177875  -0.333688   0.779413  -0.339721  -0.081239
    4  C  1  Y   -0.740303  -0.042292  -0.410541   0.149860   0.010791
    5  C  1  Z   -0.050258   0.003069  -0.007404  -0.136226   0.620920
    6  C  1  S   -0.026187  -0.428167   1.981109   1.644482   0.364004
    7  C  1  X    0.432586   0.038552   0.036997   0.231514   0.030662
    8  C  1  Y    1.955827   0.187097   0.724295   0.110915   0.049270
    9  C  1  Z    0.148566  -0.128046   0.079885   0.152024  -0.497316
   10  C  1 XX   -0.029133  -0.056807   0.014834   0.217120   0.044657
   11  C  1 YY    0.007956   0.013799  -0.004920  -0.182699   0.139760
   12  C  1 ZZ    0.005214  -0.018009  -0.028102  -0.116258  -0.206297
   13  C  1 XY    0.031019  -0.109064  -0.044355   0.007082   0.019274
   14  C  1 XZ    0.010684  -0.010081  -0.003227  -0.020509   0.149105
   15  C  1 YZ    0.097219  -0.061237  -0.018797   0.077292  -0.003525
   16  H  2  S    0.006905   0.062686   0.013882  -0.284590  -0.845634
   17  H  2  S   -0.026615   0.130931  -0.388054  -0.370640   1.123946
   18  H  3  S   -0.324912   0.251113   0.202266  -0.714534   0.273399
   19  H  3  S   -0.403253  -0.345485  -0.734983   0.279495  -0.601412
   20  O  4  S   -0.004690  -0.004687   0.040899  -0.026656  -0.006796
   21  O  4  S    0.095657  -0.084838  -0.511567  -0.368617  -0.073563
   22  O  4  X    0.105575   0.007385  -0.317181  -0.343684  -0.071184
   23  O  4  Y   -0.056969  -0.348470   0.049084   0.243779   0.040203
   24  O  4  Z   -0.014688   0.021596  -0.035320  -0.063607   0.251797
   25  O  4  S   -0.060544   0.657569  -0.108273   0.340328   0.089670
   26  O  4  X   -0.204943  -0.721208   1.511505   0.291752   0.024815
   27  O  4  Y   -0.318373   0.214282  -0.179572  -0.389573  -0.066601
   28  O  4  Z   -0.018947   0.020838   0.019666   0.115404  -0.563057
   29  O  4 XX    0.062412  -0.028874  -0.121999  -0.373374  -0.079468
   30  O  4 YY    0.023800   0.105496  -0.146919  -0.045036   0.019640
   31  O  4 ZZ    0.031829  -0.069723  -0.210069  -0.069141  -0.037249
   32  O  4 XY    0.067037   0.088035   0.089319  -0.004120   0.006883
   33  O  4 XZ    0.008924   0.000831   0.000812   0.027322  -0.127068
   34  O  4 YZ    0.034497  -0.007723   0.008024   0.015889   0.000293
   35  H  5  S    0.404626  -0.312605  -0.114802  -0.287940   0.326689
   36  H  5  S    0.578209   0.468906   0.157124  -0.203428  -0.630903
   37  H  6  S    0.093387   0.901629   0.382212   0.162495   0.028532
   38  H  6  S   -0.403982  -0.763611  -0.853065  -0.409769  -0.065466

                     21         22         23         24         25
                    1.1888     1.2410     1.2486     1.3742     1.4487
                     A          A          A          A          A   
    1  C  1  S    0.010825  -0.049963   0.013914   0.157612   0.043043
    2  C  1  S    0.478477  -1.770302   0.473592  -0.124648  -0.270550
    3  C  1  X   -0.445885   0.336597  -0.097353  -0.270857  -0.099978
    4  C  1  Y   -0.649386  -0.212927   0.137544   0.049949  -0.087931
    5  C  1  Z    0.028130   0.123029   0.421320   0.022623  -0.099692
    6  C  1  S   -1.089086   4.192028  -1.220545  -0.438420   1.606586
    7  C  1  X    0.511361  -0.667347   0.143777   0.369838   0.609707
    8  C  1  Y    0.852738   0.194439  -0.256416   0.185543  -0.656217
    9  C  1  Z   -0.042116  -0.369000  -1.219536  -0.117030   0.483692
   10  C  1 XX    0.129550  -0.165403   0.042404   0.234793   0.190723
   11  C  1 YY   -0.023373  -0.081633   0.056255  -0.088447  -0.147405
   12  C  1 ZZ   -0.006579  -0.072328  -0.012318  -0.098696  -0.056975
   13  C  1 XY   -0.062926   0.014694  -0.008200  -0.023891  -0.078696
   14  C  1 XZ   -0.023179  -0.029354  -0.058267  -0.004126   0.016943
   15  C  1 YZ   -0.170206  -0.062100   0.038588   0.025304  -0.068400
   16  H  2  S   -0.207213  -0.024567  -0.302715   0.613939  -0.023100
   17  H  2  S    0.426517  -0.913093   1.149728  -0.026785  -0.471843
   18  H  3  S    0.426564   0.269755   0.035543   0.593860  -0.000636
   19  H  3  S   -0.640360  -1.523446   0.122256  -0.215790   0.266878
   20  O  4  S   -0.016021  -0.003137  -0.001226  -0.036294  -0.022272
   21  O  4  S    0.161729   0.065821  -0.038937   0.432763   0.047297
   22  O  4  X   -0.046711   0.164929  -0.057981  -0.467062  -0.425764
   23  O  4  Y    0.312879   0.106359  -0.159209   0.305778  -0.758048
   24  O  4  Z   -0.084950  -0.266168  -0.852637  -0.025107   0.076197
   25  O  4  S   -0.243471  -0.533495   0.240642  -0.521748  -0.600906
   26  O  4  X    0.049112  -0.325197   0.066830   0.222746   1.066233
   27  O  4  Y   -0.127567  -0.015075   0.186623  -0.536854   1.495290
   28  O  4  Z    0.104939   0.385533   1.223341   0.058360  -0.204504
   29  O  4 XX   -0.010340  -0.020027  -0.003770  -0.137439  -0.160194
   30  O  4 YY   -0.043291   0.003409  -0.014920   0.154284  -0.145085
   31  O  4 ZZ    0.103250   0.106683  -0.021232   0.081829   0.184971
   32  O  4 XY    0.081155  -0.007781  -0.005700   0.033151  -0.028263
   33  O  4 XZ   -0.005102  -0.010447  -0.036314   0.003227  -0.012942
   34  O  4 YZ   -0.014987  -0.004383   0.019381   0.013833  -0.045735
   35  H  5  S   -0.735987  -0.076624   0.236826   0.611049   0.023958
   36  H  5  S    1.433243  -1.018072  -0.303010  -0.075705  -0.166242
   37  H  6  S   -0.393553  -0.291210   0.087581   0.119113  -0.418749
   38  H  6  S    0.285663   0.375342  -0.122644   0.156578  -0.614896

                     26         27         28         29         30
                    1.7829     1.8420     1.9062     2.0271     2.3515
                     A          A          A          A          A   
    1  C  1  S    0.025783   0.002298   0.010257  -0.000569   0.017882
    2  C  1  S    0.260531   0.015490   0.014556   0.010684  -0.111871
    3  C  1  X   -0.334966  -0.045629  -0.122143   0.001177  -0.159685
    4  C  1  Y   -0.102164   0.208170   0.014355  -0.251353   0.015457
    5  C  1  Z   -0.042546  -0.137595   0.273277  -0.096930  -0.251575
    6  C  1  S   -5.337482  -0.927155  -1.475155   0.248167  -1.108886
    7  C  1  X   -1.689280  -0.373467  -0.523811   0.073701  -0.422821
    8  C  1  Y    0.368863  -0.428321  -0.343286  -0.217970  -0.326302
    9  C  1  Z    0.145640   0.364619  -0.227258  -0.030406  -0.459040
   10  C  1 XX   -0.183855  -0.110525  -0.070300   0.086230  -0.093392
   11  C  1 YY    0.055168  -0.147480   0.351518  -0.097713   0.599297
   12  C  1 ZZ    0.258587   0.273571  -0.233315   0.008451  -0.400432
   13  C  1 XY    0.198772  -0.359834  -0.057860   0.380489  -0.170881
   14  C  1 XZ    0.053374   0.290112  -0.469282   0.177230   0.234078
   15  C  1 YZ   -0.164841   0.336770   0.241287   0.006327   0.105948
   16  H  2  S    0.261707  -0.008885  -0.019678   0.096769   0.617817
   17  H  2  S    0.381466  -0.137623   0.305244  -0.037002   0.068111
   18  H  3  S    0.324334   0.129306   0.233309   0.218041  -0.241899
   19  H  3  S    0.375419   0.405001   0.178243  -0.007448   0.217246
   20  O  4  S   -0.117219  -0.021219  -0.042203   0.006531  -0.044450
   21  O  4  S   -1.599267  -0.267386  -0.514735   0.089133  -0.500104
   22  O  4  X    0.015368   0.021965  -0.029065  -0.007768  -0.093202
   23  O  4  Y   -0.012322   0.120998  -0.049109  -0.167028  -0.080709
   24  O  4  Z   -0.015873  -0.066844   0.178579  -0.067591  -0.114608
   25  O  4  S    6.161556   1.079688   1.934374  -0.339798   1.819925
   26  O  4  X   -1.769336  -0.351415  -0.431146   0.115954  -0.203859
   27  O  4  Y    0.124714   0.161815   0.417946   0.114841   0.736739
   28  O  4  Z   -0.043754  -0.133114   0.011685   0.014389   0.273769
   29  O  4 XX   -0.581926  -0.047215  -0.179285  -0.029517  -0.148808
   30  O  4 YY   -0.475520  -0.382577  -0.154184   0.263428   0.402899
   31  O  4 ZZ   -0.193605   0.223674  -0.065939  -0.172497  -0.574912
   32  O  4 XY   -0.159573   0.259197   0.071681  -0.339240   0.227781
   33  O  4 XZ   -0.070711  -0.159507   0.446373  -0.072523  -0.275017
   34  O  4 YZ   -0.135628   0.409259   0.352473   0.704827  -0.048805
   35  H  5  S    0.295949   0.026881   0.009116  -0.349535  -0.258983
   36  H  5  S    0.637691  -0.060900  -0.106500  -0.003324  -0.016947
   37  H  6  S   -0.156210  -0.059280  -0.281294   0.042482  -0.818099
   38  H  6  S    0.120168   0.080077   0.034918  -0.017624   0.097427

                     31         32         33         34         35
                    2.6612     2.7968     3.0120     3.0385     3.0679
                     A          A          A          A          A   
    1  C  1  S    0.000572   0.018423   0.013835  -0.015760  -0.117867
    2  C  1  S    0.021017  -0.134315  -0.003445  -0.008504  -0.120890
    3  C  1  X   -0.012543  -0.134395   0.022585   0.006251   0.000616
    4  C  1  Y   -0.311409   0.005584   0.373343  -0.017617   0.037670
    5  C  1  Z    0.025425   0.244763   0.026417   0.373897  -0.028738
    6  C  1  S   -0.013486  -0.464486  -0.061036  -0.104590  -1.483019
    7  C  1  X   -0.076073  -0.199072  -0.036388   0.001691  -0.244344
    8  C  1  Y   -0.624341  -0.192663   0.368436   0.000046   0.011226
    9  C  1  Z    0.036166   0.526631   0.008664   0.398868  -0.017984
   10  C  1 XX    0.020263  -0.137024   0.117717   0.110430   0.960364
   11  C  1 YY   -0.089061  -0.582940  -0.146737   0.059250  -0.711551
   12  C  1 ZZ    0.069406   0.843934   0.079541  -0.220185  -0.577602
   13  C  1 XY    0.051070  -0.221287   1.149995  -0.047525  -0.115203
   14  C  1 XZ    0.078673   0.001226   0.076588   1.138418  -0.127535
   15  C  1 YZ    1.000568  -0.038295   0.162672  -0.118838   0.029607
   16  H  2  S   -0.064492  -0.575467  -0.014961   0.253651   0.244661
   17  H  2  S    0.012292   0.033937  -0.000151  -0.253539   0.094954
   18  H  3  S    0.677098   0.221613   0.191686  -0.080370   0.350168
   19  H  3  S   -0.035944   0.133874  -0.235299   0.136207   0.038343
   20  O  4  S   -0.002628  -0.016475   0.004197  -0.003829  -0.048599
   21  O  4  S    0.023283  -0.211269   0.086332  -0.134123  -1.312120
   22  O  4  X    0.016056  -0.129405  -0.071442   0.086094   0.694555
   23  O  4  Y   -0.071568  -0.056265  -0.137407   0.000595  -0.083168
   24  O  4  Z    0.011211   0.054890  -0.007809  -0.148727   0.019608
   25  O  4  S   -0.035943   0.865543  -0.072917   0.185191   2.300265
   26  O  4  X    0.023584   0.005892  -0.061838  -0.117431  -1.164935
   27  O  4  Y    0.351797   0.517001  -0.571156   0.010341   0.150806
   28  O  4  Z   -0.016144  -0.327968  -0.028015  -0.560593   0.046181
   29  O  4 XX   -0.078492  -0.046236   0.159965   0.030733   0.277750
   30  O  4 YY    0.082136   0.659830  -0.125834  -0.113445  -0.261443
   31  O  4 ZZ   -0.028367  -0.669891   0.020079   0.039857  -0.442069
   32  O  4 XY   -0.367681   0.162657   1.111167  -0.070148   0.069272
   33  O  4 XZ   -0.019220   0.313941   0.055694   1.119772  -0.111733
   34  O  4 YZ   -0.466001  -0.009170  -0.080737  -0.117639   0.006449
   35  H  5  S   -0.606100   0.322290  -0.226343  -0.069968   0.317206
   36  H  5  S    0.015295  -0.038140   0.219458   0.129235   0.052297
   37  H  6  S    0.014375  -0.659885  -0.094470   0.054125  -0.160351
   38  H  6  S    0.044225   0.077838   0.156550  -0.031640   0.066604

                     36         37         38
                    3.5193     4.3229     4.6472
                     A          A          A   
    1  C  1  S   -0.172676  -0.053058  -0.490018
    2  C  1  S   -2.045113   0.507330   2.779092
    3  C  1  X   -1.740445   0.171427  -0.305981
    4  C  1  Y    0.201150  -0.042740   0.033319
    5  C  1  Z    0.002468  -0.005001   0.000746
    6  C  1  S   -1.812269  -2.905020   2.453969
    7  C  1  X   -0.904997  -1.215977  -0.088886
    8  C  1  Y    0.120839   0.106287  -0.022007
    9  C  1  Z   -0.056842   0.069911  -0.002247
   10  C  1 XX   -0.789286   0.010402  -2.203373
   11  C  1 YY    0.377336  -0.294349  -1.781663
   12  C  1 ZZ    0.365784  -0.273717  -1.767100
   13  C  1 XY    0.178437  -0.066394   0.047620
   14  C  1 XZ   -0.003187   0.001974   0.000343
   15  C  1 YZ    0.009963  -0.008693   0.004015
   16  H  2  S    0.007928   0.117494   0.107010
   17  H  2  S    0.067243   0.099588  -0.529642
   18  H  3  S    0.013668   0.109454   0.113349
   19  H  3  S   -0.026521   0.217503  -0.528598
   20  O  4  S   -0.064521  -0.571498   0.092765
   21  O  4  S   -0.210767  -0.487979   0.348954
   22  O  4  X   -0.700518   0.338123  -0.386560
   23  O  4  Y    0.120751  -0.084907   0.035761
   24  O  4  Z   -0.002495   0.002946   0.000006
   25  O  4  S    3.448255   6.832343  -0.899712
   26  O  4  X   -2.106519  -1.192419  -0.046458
   27  O  4  Y    0.012282   0.359505   0.041387
   28  O  4  Z    0.019740  -0.021389   0.000269
   29  O  4 XX    1.539706  -1.804340   0.382949
   30  O  4 YY   -0.793093  -1.836898   0.279132
   31  O  4 ZZ   -0.714212  -1.954754   0.230999
   32  O  4 XY   -0.282746   0.018118  -0.001557
   33  O  4 XZ   -0.010178   0.008123  -0.000063
   34  O  4 YZ   -0.003390   0.003115  -0.000583
   35  H  5  S   -0.020686   0.147301   0.105065
   36  H  5  S    0.027925   0.153778  -0.540371
   37  H  6  S    0.097444  -0.065072  -0.089488
   38  H  6  S    0.193992  -0.309080   0.057277
 ...... END OF RHF CALCULATION ......
 STEP CPU TIME =     0.81 TOTAL CPU TIME =        0.8 (    0.0 MIN)
 TOTAL WALL CLOCK TIME=        1.9 SECONDS, CPU UTILIZATION IS  42.78%

     ----------------------------------------------------------------
     PROPERTY VALUES FOR THE RHF   SELF-CONSISTENT FIELD WAVEFUNCTION
     ----------------------------------------------------------------

          -----------------
          ENERGY COMPONENTS
          -----------------

         WAVEFUNCTION NORMALIZATION =       1.0000000000

                ONE ELECTRON ENERGY =    -249.0230269490
                TWO ELECTRON ENERGY =      87.2925376849
           NUCLEAR REPULSION ENERGY =      46.8698378983
                                      ------------------
                       TOTAL ENERGY =    -114.8606513659

 ELECTRON-ELECTRON POTENTIAL ENERGY =      87.2925376849
  NUCLEUS-ELECTRON POTENTIAL ENERGY =    -365.0381347277
   NUCLEUS-NUCLEUS POTENTIAL ENERGY =      46.8698378983
                                      ------------------
             TOTAL POTENTIAL ENERGY =    -230.8757591446
               TOTAL KINETIC ENERGY =     116.0151077787
                 VIRIAL RATIO (V/T) =       1.9900490855

          ---------------------------------------
          MULLIKEN AND LOWDIN POPULATION ANALYSES
          ---------------------------------------

     MULLIKEN ATOMIC POPULATION IN EACH MOLECULAR ORBITAL

                      1          2          3          4          5

                  2.000000   2.000000   2.000000   2.000000   2.000000

    1            -0.000553   1.999668   0.560264   0.695489   0.673818
    2            -0.000005   0.000440   0.001207   0.103321   0.039017
    3            -0.000008   0.000424   0.006340   0.072920   0.307144
    4             2.000569  -0.000968   1.395082   0.824129   0.794830
    5             0.000000   0.000436   0.003626   0.146954   0.000329
    6            -0.000003   0.000001   0.033480   0.157186   0.184862

                      6          7          8          9

                  2.000000   2.000000   2.000000   2.000000

    1             0.676535   0.680786   0.522427   0.401883
    2             0.210900   0.087359   0.000269   0.493384
    3             0.044082   0.006114   0.374882   0.121415
    4             1.019878   0.966376   0.611968   0.860627
    5             0.048122   0.236939   0.328265   0.122048
    6             0.000482   0.022427   0.162189   0.000643

               ----- POPULATIONS IN EACH AO -----
                             MULLIKEN      LOWDIN
              1  C  1  S      1.99655     1.96775
              2  C  1  S      0.65633     0.33444
              3  C  1  X      0.72430     0.66706
              4  C  1  Y      0.72534     0.62552
              5  C  1  Z      0.71176     0.60722
              6  C  1  S      0.54596     0.30550
              7  C  1  X      0.06553     0.24234
              8  C  1  Y      0.32014     0.43797
              9  C  1  Z      0.30680     0.44062
             10  C  1 XX      0.03321     0.19764
             11  C  1 YY      0.02004     0.14689
             12  C  1 ZZ      0.01596     0.14393
             13  C  1 XY      0.03188     0.08335
             14  C  1 XZ      0.04483     0.11614
             15  C  1 YZ      0.01171     0.01737
             16  H  2  S      0.56115     0.53750
             17  H  2  S      0.37474     0.39174
             18  H  3  S      0.56085     0.53609
             19  H  3  S      0.37246     0.38222
             20  O  4  S      1.99522     1.97573
             21  O  4  S      0.88210     0.66542
             22  O  4  X      0.95864     0.89534
             23  O  4  Y      0.91045     0.85303
             24  O  4  Z      1.16899     1.12792
             25  O  4  S      0.79988     0.40463
             26  O  4  X      0.35826     0.47632
             27  O  4  Y      0.61873     0.62210
             28  O  4  Z      0.70211     0.69671
             29  O  4 XX      0.02130     0.19131
             30  O  4 YY      0.02843     0.17154
             31  O  4 ZZ      0.00415     0.14866
             32  O  4 XY      0.01416     0.04357
             33  O  4 XZ      0.00872     0.02995
             34  O  4 YZ      0.00135     0.00147
             35  H  5  S      0.55166     0.52072
             36  H  5  S      0.33505     0.36590
             37  H  6  S      0.41266     0.39775
             38  H  6  S      0.14861     0.23064

          ----- MULLIKEN ATOMIC OVERLAP POPULATIONS -----
          (OFF-DIAGONAL ELEMENTS NEED TO BE MULTIPLIED BY 2)

             1           2           3           4           5

    1    4.7851619
    2    0.4309637   0.7297862
    3    0.4404588  -0.0611334   0.7087615
    4    0.2128149  -0.1042639  -0.0794422   8.2427148
    5    0.4108717  -0.0581747  -0.0348910  -0.0770622   0.6320994
    6   -0.0699543  -0.0012855  -0.0404404   0.2777300   0.0138753

             6

    6    0.3813427

          TOTAL MULLIKEN AND LOWDIN ATOMIC POPULATIONS
       ATOM         MULL.POP.    CHARGE          LOW.POP.     CHARGE
    1 CARBON        6.210317   -0.210317         6.333751   -0.333751
    2 HYDROGEN      0.935892    0.064108         0.929235    0.070765
    3 HYDROGEN      0.933313    0.066687         0.918311    0.081689
    4 OXYGEN        8.472491   -0.472491         8.303698   -0.303698
    5 HYDROGEN      0.886718    0.113282         0.886615    0.113385
    6 HYDROGEN      0.561268    0.438732         0.628390    0.371610

          -------------------------------
          BOND ORDER AND VALENCE ANALYSIS     BOND ORDER THRESHOLD=0.050
          -------------------------------

                   BOND                       BOND                       BOND
  ATOM PAIR DIST  ORDER      ATOM PAIR DIST  ORDER      ATOM PAIR DIST  ORDER
    1   2  1.080  0.963        1   3  1.080  0.980        1   4  1.080  1.051
    1   5  1.080  0.951        4   6  1.080  0.760

                       TOTAL       BONDED        FREE
      ATOM            VALENCE     VALENCE     VALENCE
    1 CARBON            3.937       3.937       0.000
    2 HYDROGEN          0.930       0.930       0.000
    3 HYDROGEN          0.937       0.937       0.000
    4 OXYGEN            1.782       1.782       0.000
    5 HYDROGEN          0.935       0.935       0.000
    6 HYDROGEN          0.772       0.772       0.000

          ---------------------
          ELECTROSTATIC MOMENTS
          ---------------------

 POINT   1           X           Y           Z (BOHR)    CHARGE
                 0.000000    0.000000    0.000000        0.00 (A.U.)
         DX          DY          DZ         /D/  (DEBYE)
     0.623796    1.716875   -0.169089    1.834495
 ...... END OF PROPERTY EVALUATION ......
 STEP CPU TIME =     0.00 TOTAL CPU TIME =        0.8 (    0.0 MIN)
 TOTAL WALL CLOCK TIME=        2.0 SECONDS, CPU UTILIZATION IS  42.13%

 BEGINNING ONE ELECTRON GRADIENT...
 ..... END OF 1-ELECTRON GRADIENT ......
 STEP CPU TIME =     0.01 TOTAL CPU TIME =        0.8 (    0.0 MIN)
 TOTAL WALL CLOCK TIME=        2.0 SECONDS, CPU UTILIZATION IS  41.38%

          ----------------------
          GRADIENT OF THE ENERGY
          ----------------------

 THE MINIMUM MEMORY REQUIRED FOR THIS RUN IS      80435 WORDS.
 USING    1055955 WORDS FOR 2E- DERIVATIVE INTEGRAL CONTRIBUTIONS.
 THE COARSE/FINE SCHWARZ SCREENINGS SKIPPED          0/         7 BLOCKS.
 THE NUMBER OF GRADIENT INTEGRAL BLOCKS COMPUTED WAS      9175
 ...... END OF 2-ELECTRON GRADIENT ......
 STEP CPU TIME =     0.21 TOTAL CPU TIME =        1.0 (    0.0 MIN)
 TOTAL WALL CLOCK TIME=        2.2 SECONDS, CPU UTILIZATION IS  46.67%

          NSERCH=  0     ENERGY=    -114.8606514

                                 -----------------------
                                 GRADIENT (HARTREE/BOHR)
                                 -----------------------
        ATOM     ZNUC       DE/DX         DE/DY         DE/DZ
 --------------------------------------------------------------
  1  CARBON       6.0     0.5885697    -0.0602293    -0.0027868
  2  HYDROGEN     1.0     0.0431012    -0.0045158    -0.0178276
  3  HYDROGEN     1.0     0.0425452    -0.0097453     0.0084590
  4  OXYGEN       8.0    -0.7236741    -0.0297420     0.0156149
  5  HYDROGEN     1.0     0.0269490     0.0079019     0.0035140
  6  HYDROGEN     1.0     0.0225090     0.0963306    -0.0069735

          MAXIMUM GRADIENT =  0.7236741    RMS GRADIENT = 0.2223224
          FORCE CONSTANT MATRIX NOT UPDATED --- TAKING FIRST STEP
          MIN SEARCH, CORRECT HESSIAN, TRYING PURE NR STEP
               NR STEP HAS LENGTH         =   1.198126
          TRIM/QA LAMBDA FOR NON-TS MODES =  -1.58878406
          TRIM/QA STEP HAS LENGTH         =   0.300000
          RADIUS OF STEP TAKEN=   0.30000  CURRENT TRUST RADIUS=   0.30000

 BEGINNING GEOMETRY SEARCH POINT NSERCH=   1 ...

 COORDINATES OF ALL ATOMS ARE (ANGS)
   ATOM   CHARGE       X              Y              Z
 ------------------------------------------------------------
 CARBON      6.0  -0.6428117265   0.0353787332   0.0012099708
 HYDROGEN    1.0  -0.9203933401   0.0613238127   1.0252166561
 HYDROGEN    1.0  -0.8310242350   0.9426516269  -0.5124712038
 OXYGEN      8.0   0.6486985492  -0.0781088996  -0.0050533432
 HYDROGEN    1.0  -1.0056486750  -0.8200226625  -0.5110266539
 HYDROGEN    1.0   0.9809121574   0.8698097505   0.0027586733

          INTERNUCLEAR DISTANCES (ANGS.)
          ------------------------------

                1 CARB       2 HYDR       3 HYDR       4 OXYG       5 HYDR  

   1 CARB    0.0000000    1.0612796 *  1.0594510 *  1.2965020 *  1.0610130 *
   2 HYDR    1.0612796 *  0.0000000    1.7746012 *  1.8822718 *  1.7731564 *
   3 HYDR    1.0594510 *  1.7746012 *  0.0000000    1.8678877 *  1.7713036 *
   4 OXYG    1.2965020 *  1.8822718 *  1.8678877 *  0.0000000    1.8823681 *
   5 HYDR    1.0610130 *  1.7731564 *  1.7713036 *  1.8823681 *  0.0000000  
   6 HYDR    1.8255840 *  2.3052185 *  1.8851741 *  1.0044783 *  2.6581823 *

                6 HYDR  

   1 CARB    1.8255840 *
   2 HYDR    2.3052185 *
   3 HYDR    1.8851741 *
   4 OXYG    1.0044783 *
   5 HYDR    2.6581823 *
   6 HYDR    0.0000000  

  * ... LESS THAN  3.000

 ...... END OF ONE-ELECTRON INTEGRALS ......
 STEP CPU TIME =     0.01 TOTAL CPU TIME =        1.1 (    0.0 MIN)
 TOTAL WALL CLOCK TIME=        2.2 SECONDS, CPU UTILIZATION IS  47.11%
  ...... END OF TWO-ELECTRON INTEGRALS .....
 STEP CPU TIME =     0.00 TOTAL CPU TIME =        1.1 (    0.0 MIN)
 TOTAL WALL CLOCK TIME=        2.3 SECONDS, CPU UTILIZATION IS  46.29%

          --------------------------
                 RHF SCF CALCULATION
          --------------------------
     DENSITY MATRIX CONV=  1.00E-03

 DIRECT SCF CALCULATION, SCHWRZ=T   FDIFF=T,  DIRTHR=  0.00E+00 NITDIR=10

                                                                                   NONZERO     BLOCKS
 ITER EX DEM     TOTAL ENERGY        E CHANGE  DENSITY CHANGE     ORB. GRAD      INTEGRALS    SKIPPED
          ---------------START SECOND ORDER SCF---------------
   1  0  0     -114.9658894015  -114.9658894015   0.081343209   0.047972283         262727          2
   2  1  0     -115.0030468779    -0.0371574764   0.032682658   0.012263528         262722          7
   3  2  0     -115.0064002400    -0.0033533621   0.007310815   0.005094418         262721          8
   4  3  0     -115.0065811884    -0.0001809484   0.001841491   0.001173573         262648         45
   5  4  0     -115.0065987979    -0.0000176095   0.000724477   0.000286254         262549         70
   6  5  0     -115.0066001346    -0.0000013367   0.000168178   0.000086227         262459         92
   7  6  0     -115.0066002515    -0.0000001169   0.000054826   0.000037899         262167        144

          -----------------
          DENSITY CONVERGED
          -----------------
     TIME TO FORM FOCK OPERATORS=       0.5 SECONDS (       0.1 SEC/ITER)
     FOCK TIME ON FIRST ITERATION=       0.1, LAST ITERATION=       0.1
     TIME TO SOLVE SCF EQUATIONS=       0.0 SECONDS (       0.0 SEC/ITER)

 FINAL RHF ENERGY IS     -115.0066002515 AFTER   7 ITERATIONS
 ...... END OF RHF CALCULATION ......
 STEP CPU TIME =     0.49 TOTAL CPU TIME =        1.5 (    0.0 MIN)
 TOTAL WALL CLOCK TIME=        2.9 SECONDS, CPU UTILIZATION IS  53.08%
 ..... END OF 1-ELECTRON GRADIENT ......
 STEP CPU TIME =     0.01 TOTAL CPU TIME =        1.6 (    0.0 MIN)
 TOTAL WALL CLOCK TIME=        3.0 SECONDS, CPU UTILIZATION IS  52.17%
 ...... END OF 2-ELECTRON GRADIENT ......
 STEP CPU TIME =     0.21 TOTAL CPU TIME =        1.8 (    0.0 MIN)
 TOTAL WALL CLOCK TIME=        3.2 SECONDS, CPU UTILIZATION IS  55.31%

          NSERCH=  1     ENERGY=    -115.0066003

                                 -----------------------
                                 GRADIENT (HARTREE/BOHR)
                                 -----------------------
        ATOM     ZNUC       DE/DX         DE/DY         DE/DZ
 --------------------------------------------------------------
  1  CARBON       6.0     0.0569325    -0.0017053    -0.0021479
  2  HYDROGEN     1.0     0.0326775    -0.0029408    -0.0149333
  3  HYDROGEN     1.0     0.0367172    -0.0134268     0.0088537
  4  OXYGEN       8.0    -0.1515075    -0.0509590     0.0061689
  5  HYDROGEN     1.0     0.0244815     0.0093743     0.0054274
  6  HYDROGEN     1.0     0.0006989     0.0596577    -0.0033688

          MAXIMUM GRADIENT =  0.1515075    RMS GRADIENT = 0.0447413
          HESSIAN UPDATED USING THE BFGS FORMULA
             ACTUAL ENERGY CHANGE WAS  -0.1459488856
          PREDICTED ENERGY CHANGE WAS  -0.2124788147 RATIO=  0.687
          MIN SEARCH, CORRECT HESSIAN, TRYING PURE NR STEP
               NR STEP HAS LENGTH         =   0.773894
          TRIM/QA LAMBDA FOR NON-TS MODES =  -0.14312641
          TRIM/QA STEP HAS LENGTH         =   0.300000
          RADIUS OF STEP TAKEN=   0.30000  CURRENT TRUST RADIUS=   0.30000

 BEGINNING GEOMETRY SEARCH POINT NSERCH=   2 ...

 COORDINATES OF ALL ATOMS ARE (ANGS)
   ATOM   CHARGE       X              Y              Z
 ------------------------------------------------------------
 CARBON      6.0  -0.6094932133   0.0266195032   0.0046849744
 HYDROGEN    1.0  -0.9785863218   0.0652069717   1.0134597559
 HYDROGEN    1.0  -0.9044349582   0.9310025952  -0.5053647313
 OXYGEN      8.0   0.7227563973  -0.0229172726  -0.0165074275
 HYDROGEN    1.0  -1.0368914801  -0.8134191529  -0.5040325228
 HYDROGEN    1.0   1.0363823060   0.8245397167   0.0083940507

          INTERNUCLEAR DISTANCES (ANGS.)
          ------------------------------

                1 CARB       2 HYDR       3 HYDR       4 OXYG       5 HYDR  

   1 CARB    0.0000000    1.0748699 *  1.0793749 *  1.3333387 *  1.0710405 *
   2 HYDR    1.0748699 *  0.0000000    1.7498367 *  1.9907700 *  1.7544703 *
   3 HYDR    1.0793749 *  1.7498367 *  0.0000000    1.9485113 *  1.7494438 *
   4 OXYG    1.3333387 *  1.9907700 *  1.9485113 *  0.0000000    1.9897072 *
   5 HYDR    1.0710405 *  1.7544703 *  1.7494438 *  1.9897072 *  0.0000000  
   6 HYDR    1.8290972 *  2.3763085 *  2.0104860 *  0.9039716 *  2.6914595 *

                6 HYDR  

   1 CARB    1.8290972 *
   2 HYDR    2.3763085 *
   3 HYDR    2.0104860 *
   4 OXYG    0.9039716 *
   5 HYDR    2.6914595 *
   6 HYDR    0.0000000  

  * ... LESS THAN  3.000

 ...... END OF ONE-ELECTRON INTEGRALS ......
 STEP CPU TIME =     0.00 TOTAL CPU TIME =        1.8 (    0.0 MIN)
 TOTAL WALL CLOCK TIME=        3.2 SECONDS, CPU UTILIZATION IS  55.14%
  ...... END OF TWO-ELECTRON INTEGRALS .....
 STEP CPU TIME =     0.00 TOTAL CPU TIME =        1.8 (    0.0 MIN)
 TOTAL WALL CLOCK TIME=        3.2 SECONDS, CPU UTILIZATION IS  54.97%

          --------------------------
                 RHF SCF CALCULATION
          --------------------------
     DENSITY MATRIX CONV=  4.00E-04

 DIRECT SCF CALCULATION, SCHWRZ=T   FDIFF=T,  DIRTHR=  0.00E+00 NITDIR=10

                                                                                   NONZERO     BLOCKS
 ITER EX DEM     TOTAL ENERGY        E CHANGE  DENSITY CHANGE     ORB. GRAD      INTEGRALS    SKIPPED
          ---------------START SECOND ORDER SCF---------------
   1  0  0     -115.0196603645  -115.0196603645   0.036249231   0.019779603         262714          3
   2  1  0     -115.0255422085    -0.0058818441   0.014840646   0.007196375         262674         26
   3  2  0     -115.0261121251    -0.0005699166   0.004390410   0.001946391         262641         42
   4  3  0     -115.0261697832    -0.0000576582   0.000823377   0.000392264         262572         68
   5  4  0     -115.0261724012    -0.0000026179   0.000341094   0.000161759         262324        106
   6  5  0     -115.0261726506    -0.0000002495   0.000073994   0.000028649         262025        173
   7  6  0     -115.0261726645    -0.0000000139   0.000016100   0.000005975         261837        227

          -----------------
          DENSITY CONVERGED
          -----------------
     TIME TO FORM FOCK OPERATORS=       0.5 SECONDS (       0.1 SEC/ITER)
     FOCK TIME ON FIRST ITERATION=       0.1, LAST ITERATION=       0.1
     TIME TO SOLVE SCF EQUATIONS=       0.0 SECONDS (       0.0 SEC/ITER)

 FINAL RHF ENERGY IS     -115.0261726645 AFTER   7 ITERATIONS
 ...... END OF RHF CALCULATION ......
 STEP CPU TIME =     0.50 TOTAL CPU TIME =        2.3 (    0.0 MIN)
 TOTAL WALL CLOCK TIME=        3.9 SECONDS, CPU UTILIZATION IS  58.66%
 ..... END OF 1-ELECTRON GRADIENT ......
 STEP CPU TIME =     0.01 TOTAL CPU TIME =        2.3 (    0.0 MIN)
 TOTAL WALL CLOCK TIME=        3.9 SECONDS, CPU UTILIZATION IS  57.72%
 ...... END OF 2-ELECTRON GRADIENT ......
 STEP CPU TIME =     0.20 TOTAL CPU TIME =        2.5 (    0.0 MIN)
 TOTAL WALL CLOCK TIME=        4.2 SECONDS, CPU UTILIZATION IS  59.33%

          NSERCH=  2     ENERGY=    -115.0261727

                                 -----------------------
                                 GRADIENT (HARTREE/BOHR)
                                 -----------------------
        ATOM     ZNUC       DE/DX         DE/DY         DE/DZ
 --------------------------------------------------------------
  1  CARBON       6.0     0.0428759    -0.0165677     0.0015713
  2  HYDROGEN     1.0     0.0097030     0.0013399    -0.0086414
  3  HYDROGEN     1.0     0.0168476    -0.0027914     0.0033186
  4  OXYGEN       8.0    -0.0463413     0.0574293     0.0039422
  5  HYDROGEN     1.0     0.0026556     0.0081230     0.0030951
  6  HYDROGEN     1.0    -0.0257408    -0.0475332    -0.0032859

          MAXIMUM GRADIENT =  0.0574293    RMS GRADIENT = 0.0247938
          HESSIAN UPDATED USING THE BFGS FORMULA
             ACTUAL ENERGY CHANGE WAS  -0.0195724130
          PREDICTED ENERGY CHANGE WAS  -0.0251098538 RATIO=  0.779
          MIN SEARCH, CORRECT HESSIAN, TRYING PURE NR STEP
               NR STEP HAS LENGTH         =   0.463926
          TRIM/QA LAMBDA FOR NON-TS MODES =  -0.00129535
          TRIM/QA STEP HAS LENGTH         =   0.424264
          RADIUS OF STEP TAKEN=   0.42426  CURRENT TRUST RADIUS=   0.42426

 BEGINNING GEOMETRY SEARCH POINT NSERCH=   3 ...

 COORDINATES OF ALL ATOMS ARE (ANGS)
   ATOM   CHARGE       X              Y              Z
 ------------------------------------------------------------
 CARBON      6.0  -0.5690798245   0.0477692783  -0.0140062384
 HYDROGEN    1.0  -0.9873235163   0.0847350991   0.9929024988
 HYDROGEN    1.0  -0.9935113323   0.9120057595  -0.5348610980
 OXYGEN      8.0   0.7865522417  -0.0697325767  -0.1183179484
 HYDROGEN    1.0  -1.0814272939  -0.8165034683  -0.4542089196
 HYDROGEN    1.0   1.0745224553   0.8527582693   0.1291258051

          INTERNUCLEAR DISTANCES (ANGS.)
          ------------------------------

                1 CARB       2 HYDR       3 HYDR       4 OXYG       5 HYDR  

   1 CARB    0.0000000    1.0909443 *  1.0946856 *  1.3647073 *  1.0969256 *
   2 HYDR    1.0909443 *  0.0000000    1.7373764 *  2.0988822 *  1.7074009 *
   3 HYDR    1.0946856 *  1.7373764 *  0.0000000    2.0750770 *  1.7326218 *
   4 OXYG    1.3647073 *  2.0988822 *  2.0750770 *  0.0000000    2.0395679 *
   5 HYDR    1.0969256 *  1.7074009 *  1.7326218 *  2.0395679 *  0.0000000  
   6 HYDR    1.8357349 *  2.3637213 *  2.1728214 *  0.9975694 *  2.7883388 *

                6 HYDR  

   1 CARB    1.8357349 *
   2 HYDR    2.3637213 *
   3 HYDR    2.1728214 *
   4 OXYG    0.9975694 *
   5 HYDR    2.7883388 *
   6 HYDR    0.0000000  

  * ... LESS THAN  3.000

 ...... END OF ONE-ELECTRON INTEGRALS ......
 STEP CPU TIME =     0.00 TOTAL CPU TIME =        2.5 (    0.0 MIN)
 TOTAL WALL CLOCK TIME=        4.2 SECONDS, CPU UTILIZATION IS  59.19%
  ...... END OF TWO-ELECTRON INTEGRALS .....
 STEP CPU TIME =     0.00 TOTAL CPU TIME =        2.5 (    0.0 MIN)
 TOTAL WALL CLOCK TIME=        4.2 SECONDS, CPU UTILIZATION IS  58.77%

          --------------------------
                 RHF SCF CALCULATION
          --------------------------
     DENSITY MATRIX CONV=  4.00E-04

 DIRECT SCF CALCULATION, SCHWRZ=T   FDIFF=T,  DIRTHR=  0.00E+00 NITDIR=10

                                                                                   NONZERO     BLOCKS
 ITER EX DEM     TOTAL ENERGY        E CHANGE  DENSITY CHANGE     ORB. GRAD      INTEGRALS    SKIPPED
          ---------------START SECOND ORDER SCF---------------
   1  0  0     -115.0131016021  -115.0131016021   0.052347770   0.023049832         262757          6
   2  1  0     -115.0250940426    -0.0119924405   0.026990122   0.010591288         262698         34
   3  2  0     -115.0266880371    -0.0015939944   0.008534910   0.003526310         262657         47
   4  3  0     -115.0268604760    -0.0001724390   0.004977448   0.000914918         262547         73
   5  4  0     -115.0268865532    -0.0000260772   0.001952477   0.000323052         262440         92
   6  5  0     -115.0268895833    -0.0000030301   0.000247616   0.000093954         262165        143
   7  6  0     -115.0268898320    -0.0000002487   0.000090532   0.000033451         261979        195
   8  7  0     -115.0268898570    -0.0000000250   0.000024949   0.000009576         261686        266

          -----------------
          DENSITY CONVERGED
          -----------------
     TIME TO FORM FOCK OPERATORS=       0.6 SECONDS (       0.1 SEC/ITER)
     FOCK TIME ON FIRST ITERATION=       0.1, LAST ITERATION=       0.1
     TIME TO SOLVE SCF EQUATIONS=       0.0 SECONDS (       0.0 SEC/ITER)

 FINAL RHF ENERGY IS     -115.0268898570 AFTER   8 ITERATIONS
 ...... END OF RHF CALCULATION ......
 STEP CPU TIME =     0.57 TOTAL CPU TIME =        3.0 (    0.1 MIN)
 TOTAL WALL CLOCK TIME=        5.0 SECONDS, CPU UTILIZATION IS  61.49%
 ..... END OF 1-ELECTRON GRADIENT ......
 STEP CPU TIME =     0.01 TOTAL CPU TIME =        3.1 (    0.1 MIN)
 TOTAL WALL CLOCK TIME=        5.0 SECONDS, CPU UTILIZATION IS  60.83%
 ...... END OF 2-ELECTRON GRADIENT ......
 STEP CPU TIME =     0.20 TOTAL CPU TIME =        3.3 (    0.1 MIN)
 TOTAL WALL CLOCK TIME=        5.3 SECONDS, CPU UTILIZATION IS  61.86%

          NSERCH=  3     ENERGY=    -115.0268899

                                 -----------------------
                                 GRADIENT (HARTREE/BOHR)
                                 -----------------------
        ATOM     ZNUC       DE/DX         DE/DY         DE/DZ
 --------------------------------------------------------------
  1  CARBON       6.0     0.0610048     0.0154001     0.0086500
  2  HYDROGEN     1.0    -0.0126172    -0.0026826    -0.0057571
  3  HYDROGEN     1.0    -0.0080390     0.0000083     0.0007256
  4  OXYGEN       8.0    -0.0244041    -0.0588066    -0.0171646
  5  HYDROGEN     1.0    -0.0120554    -0.0025975     0.0010749
  6  HYDROGEN     1.0    -0.0038891     0.0486783     0.0124712

          MAXIMUM GRADIENT =  0.0610048    RMS GRADIENT = 0.0250999
          HESSIAN UPDATED USING THE BFGS FORMULA
             ACTUAL ENERGY CHANGE WAS  -0.0007171925
          PREDICTED ENERGY CHANGE WAS  -0.0084585715 RATIO=  0.085
          MIN SEARCH, CORRECT HESSIAN, TRYING PURE NR STEP
               NR STEP HAS LENGTH         =   0.764390
          TRIM/QA LAMBDA FOR NON-TS MODES =  -0.06440452
          TRIM/QA STEP HAS LENGTH         =   0.212132
          RADIUS OF STEP TAKEN=   0.21213  CURRENT TRUST RADIUS=   0.21213

 BEGINNING GEOMETRY SEARCH POINT NSERCH=   4 ...

 COORDINATES OF ALL ATOMS ARE (ANGS)
   ATOM   CHARGE       X              Y              Z
 ------------------------------------------------------------
 CARBON      6.0  -0.6158458743   0.0519497502  -0.0171392685
 HYDROGEN    1.0  -0.9795247089   0.0789127143   1.0146538486
 HYDROGEN    1.0  -1.0011593326   0.9263500532  -0.5347979705
 OXYGEN      8.0   0.7618496614  -0.0422483482  -0.0693037504
 HYDROGEN    1.0  -1.0496080688  -0.8319592785  -0.4820403740
 HYDROGEN    1.0   1.1140210531   0.8280274704   0.0892616142

          INTERNUCLEAR DISTANCES (ANGS.)
          ------------------------------

                1 CARB       2 HYDR       3 HYDR       4 OXYG       5 HYDR  

   1 CARB    0.0000000    1.0943429 *  1.0867442 *  1.3818970 *  1.0888424 *
   2 HYDR    1.0943429 *  0.0000000    1.7661877 *  2.0547576 *  1.7534803 *
   3 HYDR    1.0867442 *  1.7661877 *  0.0000000    2.0647199 *  1.7597677 *
   4 OXYG    1.3818970 *  2.0547576 *  2.0647199 *  0.0000000    2.0187556 *
   5 HYDR    1.0888424 *  1.7534803 *  1.7597677 *  2.0187556 *  0.0000000  
   6 HYDR    1.8989622 *  2.4084139 *  2.2075112 *  0.9521280 *  2.7862579 *

                6 HYDR  

   1 CARB    1.8989622 *
   2 HYDR    2.4084139 *
   3 HYDR    2.2075112 *
   4 OXYG    0.9521280 *
   5 HYDR    2.7862579 *
   6 HYDR    0.0000000  

  * ... LESS THAN  3.000

 ...... END OF ONE-ELECTRON INTEGRALS ......
 STEP CPU TIME =     0.00 TOTAL CPU TIME =        3.3 (    0.1 MIN)
 TOTAL WALL CLOCK TIME=        5.6 SECONDS, CPU UTILIZATION IS  57.80%
  ...... END OF TWO-ELECTRON INTEGRALS .....
 STEP CPU TIME =     0.00 TOTAL CPU TIME =        3.3 (    0.1 MIN)
 TOTAL WALL CLOCK TIME=        5.7 SECONDS, CPU UTILIZATION IS  57.29%

          --------------------------
                 RHF SCF CALCULATION
          --------------------------
     DENSITY MATRIX CONV=  4.00E-04

 DIRECT SCF CALCULATION, SCHWRZ=T   FDIFF=T,  DIRTHR=  0.00E+00 NITDIR=10

                                                                                   NONZERO     BLOCKS
 ITER EX DEM     TOTAL ENERGY        E CHANGE  DENSITY CHANGE     ORB. GRAD      INTEGRALS    SKIPPED
          ---------------START SECOND ORDER SCF---------------
   1  0  0     -115.0308456109  -115.0308456109   0.019773940   0.016627160         262726          7
   2  1  0     -115.0340234587    -0.0031778478   0.009353182   0.003536193         262633         49
   3  2  0     -115.0343251575    -0.0003016988   0.003121828   0.001721898         262494         74
   4  3  0     -115.0343552998    -0.0000301423   0.001158415   0.000445649         262286        111
   5  4  0     -115.0343588333    -0.0000035335   0.000768662   0.000155198         262092        150
   6  5  0     -115.0343592132    -0.0000003800   0.000120155   0.000031332         261876        208
   7  6  0     -115.0343592308    -0.0000000175   0.000025130   0.000008720         261647        276

          -----------------
          DENSITY CONVERGED
          -----------------
     TIME TO FORM FOCK OPERATORS=       0.5 SECONDS (       0.1 SEC/ITER)
     FOCK TIME ON FIRST ITERATION=       0.1, LAST ITERATION=       0.1
     TIME TO SOLVE SCF EQUATIONS=       0.0 SECONDS (       0.0 SEC/ITER)

 FINAL RHF ENERGY IS     -115.0343592308 AFTER   7 ITERATIONS
 ...... END OF RHF CALCULATION ......
 STEP CPU TIME =     0.49 TOTAL CPU TIME =        3.8 (    0.1 MIN)
 TOTAL WALL CLOCK TIME=        6.3 SECONDS, CPU UTILIZATION IS  59.52%
 ..... END OF 1-ELECTRON GRADIENT ......
 STEP CPU TIME =     0.01 TOTAL CPU TIME =        3.8 (    0.1 MIN)
 TOTAL WALL CLOCK TIME=        6.4 SECONDS, CPU UTILIZATION IS  59.03%
 ...... END OF 2-ELECTRON GRADIENT ......
 STEP CPU TIME =     0.20 TOTAL CPU TIME =        4.0 (    0.1 MIN)
 TOTAL WALL CLOCK TIME=        6.6 SECONDS, CPU UTILIZATION IS  60.09%

          NSERCH=  4     ENERGY=    -115.0343592

                                 -----------------------
                                 GRADIENT (HARTREE/BOHR)
                                 -----------------------
        ATOM     ZNUC       DE/DX         DE/DY         DE/DZ
 --------------------------------------------------------------
  1  CARBON       6.0     0.0207804     0.0069270    -0.0066059
  2  HYDROGEN     1.0    -0.0010329    -0.0015779     0.0033397
  3  HYDROGEN     1.0    -0.0008068    -0.0002734     0.0013454
  4  OXYGEN       8.0    -0.0127360    -0.0099212     0.0023818
  5  HYDROGEN     1.0    -0.0041188    -0.0032795    -0.0004415
  6  HYDROGEN     1.0    -0.0020860     0.0081249    -0.0000196

          MAXIMUM GRADIENT =  0.0207804    RMS GRADIENT = 0.0070918
          HESSIAN UPDATED USING THE BFGS FORMULA
             ACTUAL ENERGY CHANGE WAS  -0.0074693738
          PREDICTED ENERGY CHANGE WAS  -0.0081054121 RATIO=  0.922
          MIN SEARCH, CORRECT HESSIAN, TRYING PURE NR STEP
               NR STEP HAS LENGTH         =   0.219677
          RADIUS OF STEP TAKEN=   0.21968  CURRENT TRUST RADIUS=   0.42426

 BEGINNING GEOMETRY SEARCH POINT NSERCH=   5 ...

 COORDINATES OF ALL ATOMS ARE (ANGS)
   ATOM   CHARGE       X              Y              Z
 ------------------------------------------------------------
 CARBON      6.0  -0.6465934106   0.0421871611  -0.0073180649
 HYDROGEN    1.0  -0.9522086386   0.1087560341   1.0326121398
 HYDROGEN    1.0  -1.0079119337   0.9126411225  -0.5586532650
 OXYGEN      8.0   0.7460277292  -0.0223670310  -0.1323589811
 HYDROGEN    1.0  -1.0416895722  -0.8444178208  -0.4878962796
 HYDROGEN    1.0   1.1321085559   0.8142328952   0.1542485501

          INTERNUCLEAR DISTANCES (ANGS.)
          ------------------------------

                1 CARB       2 HYDR       3 HYDR       4 OXYG       5 HYDR  

   1 CARB    0.0000000    1.0859498 *  1.0918845 *  1.3997129 *  1.0831089 *
   2 HYDR    1.0859498 *  0.0000000    1.7836647 *  2.0635789 *  1.7968008 *
   3 HYDR    1.0918845 *  1.7836647 *  0.0000000    2.0327989 *  1.7588074 *
   4 OXYG    1.3997129 *  2.0635789 *  2.0327989 *  0.0000000    1.9995268 *
   5 HYDR    1.0831089 *  1.7968008 *  1.7588074 *  1.9995268 *  0.0000000  
   6 HYDR    1.9457490 *  2.3693034 *  2.2577867 *  0.9649361 *  2.8087133 *

                6 HYDR  

   1 CARB    1.9457490 *
   2 HYDR    2.3693034 *
   3 HYDR    2.2577867 *
   4 OXYG    0.9649361 *
   5 HYDR    2.8087133 *
   6 HYDR    0.0000000  

  * ... LESS THAN  3.000

 ...... END OF ONE-ELECTRON INTEGRALS ......
 STEP CPU TIME =     0.00 TOTAL CPU TIME =        4.0 (    0.1 MIN)
 TOTAL WALL CLOCK TIME=        6.6 SECONDS, CPU UTILIZATION IS  60.00%
  ...... END OF TWO-ELECTRON INTEGRALS .....
 STEP CPU TIME =     0.00 TOTAL CPU TIME =        4.0 (    0.1 MIN)
 TOTAL WALL CLOCK TIME=        6.6 SECONDS, CPU UTILIZATION IS  59.82%

          --------------------------
                 RHF SCF CALCULATION
          --------------------------
     DENSITY MATRIX CONV=  1.00E-04

 DIRECT SCF CALCULATION, SCHWRZ=T   FDIFF=T,  DIRTHR=  0.00E+00 NITDIR=10

                                                                                   NONZERO     BLOCKS
 ITER EX DEM     TOTAL ENERGY        E CHANGE  DENSITY CHANGE     ORB. GRAD      INTEGRALS    SKIPPED
          ---------------START SECOND ORDER SCF---------------
   1  0  0     -115.0299211383  -115.0299211383   0.033420995   0.015547214         262726          7
   2  1  0     -115.0336816093    -0.0037604710   0.015026078   0.005808798         262613         62
   3  2  0     -115.0341545419    -0.0004729326   0.005233210   0.001825264         262488         78
   4  3  0     -115.0341889526    -0.0000344107   0.002090069   0.000587129         262264        121
   5  4  0     -115.0341962077    -0.0000072552   0.000883722   0.000181869         262107        147
   6  5  0     -115.0341968389    -0.0000006312   0.000079812   0.000035447         261928        194
   7  6  0     -115.0341968643    -0.0000000254   0.000028432   0.000009298         261651        273
   8  7  0     -115.0341968667    -0.0000000024   0.000003869   0.000001614         261450        351

          -----------------
          DENSITY CONVERGED
          -----------------
     TIME TO FORM FOCK OPERATORS=       0.6 SECONDS (       0.1 SEC/ITER)
     FOCK TIME ON FIRST ITERATION=       0.1, LAST ITERATION=       0.1
     TIME TO SOLVE SCF EQUATIONS=       0.0 SECONDS (       0.0 SEC/ITER)

 FINAL RHF ENERGY IS     -115.0341968667 AFTER   8 ITERATIONS
 ...... END OF RHF CALCULATION ......
 STEP CPU TIME =     0.57 TOTAL CPU TIME =        4.5 (    0.1 MIN)
 TOTAL WALL CLOCK TIME=        7.3 SECONDS, CPU UTILIZATION IS  61.72%
 ..... END OF 1-ELECTRON GRADIENT ......
 STEP CPU TIME =     0.01 TOTAL CPU TIME =        4.5 (    0.1 MIN)
 TOTAL WALL CLOCK TIME=        7.4 SECONDS, CPU UTILIZATION IS  61.60%
 ...... END OF 2-ELECTRON GRADIENT ......
 STEP CPU TIME =     0.19 TOTAL CPU TIME =        4.7 (    0.1 MIN)
 TOTAL WALL CLOCK TIME=        7.6 SECONDS, CPU UTILIZATION IS  62.16%

          NSERCH=  5     ENERGY=    -115.0341969

                                 -----------------------
                                 GRADIENT (HARTREE/BOHR)
                                 -----------------------
        ATOM     ZNUC       DE/DX         DE/DY         DE/DZ
 --------------------------------------------------------------
  1  CARBON       6.0    -0.0065120    -0.0096034     0.0112555
  2  HYDROGEN     1.0     0.0035231     0.0026236     0.0012634
  3  HYDROGEN     1.0     0.0061013     0.0029532    -0.0045272
  4  OXYGEN       8.0    -0.0132306    -0.0136256    -0.0076223
  5  HYDROGEN     1.0     0.0018840    -0.0002445    -0.0057051
  6  HYDROGEN     1.0     0.0082342     0.0178968     0.0053357

          MAXIMUM GRADIENT =  0.0178968    RMS GRADIENT = 0.0082333
          HESSIAN UPDATED USING THE BFGS FORMULA
             ACTUAL ENERGY CHANGE WAS   0.0001623641
          PREDICTED ENERGY CHANGE WAS  -0.0010354323 RATIO= -0.157
          MIN SEARCH, CORRECT HESSIAN, TRYING PURE NR STEP
               NR STEP HAS LENGTH         =   0.175512
          TRIM/QA LAMBDA FOR NON-TS MODES =  -0.01973223
          TRIM/QA STEP HAS LENGTH         =   0.109838
          RADIUS OF STEP TAKEN=   0.10984  CURRENT TRUST RADIUS=   0.10984

 BEGINNING GEOMETRY SEARCH POINT NSERCH=   6 ...

 COORDINATES OF ALL ATOMS ARE (ANGS)
   ATOM   CHARGE       X              Y              Z
 ------------------------------------------------------------
 CARBON      6.0  -0.6389151932   0.0538497667  -0.0130516331
 HYDROGEN    1.0  -0.9742670892   0.0954077759   1.0189879363
 HYDROGEN    1.0  -1.0230492430   0.9217360980  -0.5458191658
 OXYGEN      8.0   0.7574204105  -0.0239816305  -0.1076623323
 HYDROGEN    1.0  -1.0326697344  -0.8423084447  -0.4784763287
 HYDROGEN    1.0   1.1412135793   0.8063287958   0.1266556230

          INTERNUCLEAR DISTANCES (ANGS.)
          ------------------------------

                1 CARB       2 HYDR       3 HYDR       4 OXYG       5 HYDR  

   1 CARB    0.0000000    1.0859529 *  1.0884057 *  1.4016997 *  1.0838645 *
   2 HYDR    1.0859529 *  0.0000000    1.7702597 *  2.0693806 *  1.7678014 *
   3 HYDR    1.0884057 *  1.7702597 *  0.0000000    2.0631131 *  1.7653557 *
   4 OXYG    1.4016997 *  2.0693806 *  2.0631131 *  0.0000000    2.0028940 *
   5 HYDR    1.0838645 *  1.7678014 *  1.7653557 *  2.0028940 *  0.0000000  
   6 HYDR    1.9376793 *  2.4035233 *  2.2692674 *  0.9442550 *  2.7946302 *

                6 HYDR  

   1 CARB    1.9376793 *
   2 HYDR    2.4035233 *
   3 HYDR    2.2692674 *
   4 OXYG    0.9442550 *
   5 HYDR    2.7946302 *
   6 HYDR    0.0000000  

  * ... LESS THAN  3.000

 ...... END OF ONE-ELECTRON INTEGRALS ......
 STEP CPU TIME =     0.01 TOTAL CPU TIME =        4.7 (    0.1 MIN)
 TOTAL WALL CLOCK TIME=        7.6 SECONDS, CPU UTILIZATION IS  62.20%
  ...... END OF TWO-ELECTRON INTEGRALS .....
 STEP CPU TIME =     0.00 TOTAL CPU TIME =        4.7 (    0.1 MIN)
 TOTAL WALL CLOCK TIME=        7.6 SECONDS, CPU UTILIZATION IS  62.04%

          --------------------------
                 RHF SCF CALCULATION
          --------------------------
     DENSITY MATRIX CONV=  1.00E-04

 DIRECT SCF CALCULATION, SCHWRZ=T   FDIFF=T,  DIRTHR=  0.00E+00 NITDIR=10

                                                                                   NONZERO     BLOCKS
 ITER EX DEM     TOTAL ENERGY        E CHANGE  DENSITY CHANGE     ORB. GRAD      INTEGRALS    SKIPPED
          ---------------START SECOND ORDER SCF---------------
   1  0  0     -115.0343754597  -115.0343754597   0.011886602   0.006058483         262706          7
   2  1  0     -115.0350927209    -0.0007172612   0.005568393   0.002009528         262500         77
   3  2  0     -115.0351712146    -0.0000784937   0.001931725   0.000795720         262379         96
   4  3  0     -115.0351802496    -0.0000090350   0.000752075   0.000238057         262108        143
   5  4  0     -115.0351812268    -0.0000009772   0.000410455   0.000085672         261938        181
   6  5  0     -115.0351813297    -0.0000001029   0.000038031   0.000013271         261717        247
   7  6  0     -115.0351813336    -0.0000000039   0.000013311   0.000005545         261500        328

          -----------------
          DENSITY CONVERGED
          -----------------
     TIME TO FORM FOCK OPERATORS=       0.5 SECONDS (       0.1 SEC/ITER)
     FOCK TIME ON FIRST ITERATION=       0.1, LAST ITERATION=       0.1
     TIME TO SOLVE SCF EQUATIONS=       0.0 SECONDS (       0.0 SEC/ITER)

 FINAL RHF ENERGY IS     -115.0351813336 AFTER   7 ITERATIONS
 ...... END OF RHF CALCULATION ......
 STEP CPU TIME =     0.49 TOTAL CPU TIME =        5.2 (    0.1 MIN)
 TOTAL WALL CLOCK TIME=        8.3 SECONDS, CPU UTILIZATION IS  63.09%
 ..... END OF 1-ELECTRON GRADIENT ......
 STEP CPU TIME =     0.01 TOTAL CPU TIME =        5.2 (    0.1 MIN)
 TOTAL WALL CLOCK TIME=        8.4 SECONDS, CPU UTILIZATION IS  62.75%
 ...... END OF 2-ELECTRON GRADIENT ......
 STEP CPU TIME =     0.19 TOTAL CPU TIME =        5.4 (    0.1 MIN)
 TOTAL WALL CLOCK TIME=        8.6 SECONDS, CPU UTILIZATION IS  63.36%

          NSERCH=  6     ENERGY=    -115.0351813

                                 -----------------------
                                 GRADIENT (HARTREE/BOHR)
                                 -----------------------
        ATOM     ZNUC       DE/DX         DE/DY         DE/DZ
 --------------------------------------------------------------
  1  CARBON       6.0    -0.0032243    -0.0002526     0.0037179
  2  HYDROGEN     1.0     0.0006343     0.0001090    -0.0004590
  3  HYDROGEN     1.0     0.0015725     0.0014769    -0.0006274
[...]
          ------------------------------

                1 CARB       2 HYDR       3 HYDR       4 OXYG       5 HYDR  

   1 CARB    0.0000000    1.0874150 *  1.0874385 *  1.3995903 *  1.0810446 *
   2 HYDR    1.0874150 *  0.0000000    1.7670379 *  2.0696693 *  1.7586690 *
   3 HYDR    1.0874385 *  1.7670379 *  0.0000000    2.0696105 *  1.7587116 *
   4 OXYG    1.3995903 *  2.0696693 *  2.0696105 *  0.0000000    2.0052400 *
   5 HYDR    1.0810446 *  1.7586690 *  1.7587116 *  2.0052400 *  0.0000000  
   6 HYDR    1.9329157 *  2.3348939 *  2.3349330 *  0.9463184 *  2.8004849 *

                6 HYDR  

   1 CARB    1.9329157 *
   2 HYDR    2.3348939 *
   3 HYDR    2.3349330 *
   4 OXYG    0.9463184 *
   5 HYDR    2.8004849 *
   6 HYDR    0.0000000  

  * ... LESS THAN  3.000


          NUCLEAR ENERGY    =       40.7869872328
          ELECTRONIC ENERGY =     -155.8224055523
          TOTAL ENERGY      =     -115.0354183195

          ------------------
          MOLECULAR ORBITALS
          ------------------

                      1          2          3          4          5
                  -20.5554   -11.2667    -1.3603    -0.9268    -0.6936
                     A          A          A          A          A   
    1  C  1  S    0.000018  -0.995736   0.070929   0.176628  -0.023782
    2  C  1  S   -0.000295  -0.027619  -0.129598  -0.342783   0.040857
    3  C  1  X   -0.000360  -0.000776  -0.097938   0.067236  -0.189366
    4  C  1  Y    0.000035  -0.000012   0.000639   0.012423   0.183317
    5  C  1  Z    0.000044   0.000051   0.007495   0.001313   0.106028
    6  C  1  S   -0.000034   0.012065  -0.050046  -0.323216   0.092181
    7  C  1  X    0.000168  -0.000535  -0.001383   0.037897  -0.054341
    8  C  1  Y   -0.000244  -0.000033  -0.004537  -0.005483   0.084039
    9  C  1  Z   -0.000135   0.000023  -0.002178  -0.005532   0.046222
   10  C  1 XX   -0.000006   0.001608  -0.025100   0.003474  -0.021051
   11  C  1 YY    0.000072   0.001836   0.005713  -0.012793   0.006389
   12  C  1 ZZ    0.000051   0.001853   0.005835  -0.011476   0.017524
   13  C  1 XY   -0.000008   0.000008  -0.000166   0.001626   0.003712
   14  C  1 XZ    0.000000   0.000025   0.002554  -0.000404   0.005496
   15  C  1 YZ    0.000017  -0.000016  -0.000204  -0.001162  -0.009269
   16  H  2  S    0.000046  -0.000064  -0.024131  -0.134249   0.111612
   17  H  2  S    0.000122  -0.002477  -0.001873  -0.035973   0.064059
   18  H  3  S    0.000046  -0.000064  -0.024131  -0.134240   0.111557
   19  H  3  S    0.000122  -0.002477  -0.001873  -0.035972   0.064020
   20  O  4  S   -0.994629   0.000158   0.202609  -0.058762   0.040899
   21  O  4  S   -0.021211  -0.000147  -0.457674   0.132370  -0.092862
   22  O  4  X    0.000644   0.000101   0.047063   0.190468   0.227349
   23  O  4  Y   -0.001015  -0.000042  -0.064857   0.071611   0.332397
   24  O  4  Z   -0.000557  -0.000029  -0.036045   0.022042   0.150425
   25  O  4  S   -0.004075  -0.001184  -0.422638   0.181233  -0.163697
   26  O  4  X   -0.000278  -0.000202   0.025132   0.097079   0.133077
   27  O  4  Y    0.000452   0.000139  -0.035411   0.038732   0.201012
   28  O  4  Z    0.000248   0.000085  -0.019639   0.012357   0.091290
   29  O  4 XX    0.004225   0.000800  -0.017051  -0.016059  -0.016599
   30  O  4 YY    0.004058  -0.000010  -0.017240   0.013861   0.028348
   31  O  4 ZZ    0.003937  -0.000041  -0.003566   0.003110   0.003104
   32  O  4 XY    0.000044  -0.000003  -0.005399   0.011345   0.005050
   33  O  4 XZ   -0.000005  -0.000074  -0.001210   0.007108   0.003526
   34  O  4 YZ    0.000090   0.000028  -0.010030   0.006887   0.018935
   35  H  5  S   -0.000014  -0.000077  -0.024949  -0.142331  -0.042377
   36  H  5  S   -0.000020  -0.002505  -0.006242  -0.042896  -0.024084
   37  H  6  S   -0.000372  -0.000037  -0.124929   0.110724   0.213763
   38  H  6  S    0.000232  -0.000299   0.003344   0.025820   0.097688

                      6          7          8          9         10
                   -0.6209    -0.5953    -0.4973    -0.4433     0.2268
                     A          A          A          A          A   
    1  C  1  S   -0.000002   0.000462   0.008907   0.000001   0.055176
    2  C  1  S    0.000003  -0.002836  -0.023073   0.000000  -0.028951
    3  C  1  X   -0.024683  -0.290150  -0.092402   0.015859   0.154877
    4  C  1  Y    0.169773  -0.229720   0.280706  -0.108796  -0.039703
    5  C  1  Z   -0.337674  -0.094283   0.147860   0.216428  -0.031292
    6  C  1  S    0.000001   0.048087   0.004297  -0.000017  -1.085636
    7  C  1  X   -0.011088  -0.107151  -0.019305   0.006902   0.600027
    8  C  1  Y    0.076226  -0.132009   0.130054  -0.047335  -0.066105
    9  C  1  Z   -0.151587  -0.058534   0.066780   0.094154  -0.077166
   10  C  1 XX    0.000615  -0.028124  -0.011183  -0.004140  -0.002338
   11  C  1 YY    0.016156   0.024028  -0.006940  -0.014542   0.014184
   12  C  1 ZZ   -0.016770   0.006331   0.018009   0.018682   0.010983
   13  C  1 XY   -0.003787   0.009990  -0.028514   0.017640  -0.002713
   14  C  1 XZ    0.004118   0.007520  -0.011338  -0.031870  -0.000339
   15  C  1 YZ   -0.013712   0.012372  -0.016000   0.011295   0.002767
   16  H  2  S   -0.182548  -0.011594   0.123752   0.169433  -0.001869
   17  H  2  S   -0.139877  -0.005991   0.125224   0.183023   0.657225
   18  H  3  S    0.182598  -0.011494   0.123672  -0.169483  -0.001863
   19  H  3  S    0.139909  -0.005908   0.125146  -0.183072   0.657155
   20  O  4  S    0.000009  -0.026263  -0.049113   0.000001   0.079954
   21  O  4  S   -0.000021   0.063268   0.107847  -0.000002  -0.056762
   22  O  4  X   -0.022514   0.380904   0.171761  -0.035524  -0.034073
   23  O  4  Y    0.154107  -0.122806  -0.334427   0.243619  -0.161198
   24  O  4  Z   -0.306507  -0.089705  -0.180705  -0.484662  -0.078525
   25  O  4  S   -0.000033   0.099007   0.232462  -0.000007  -1.122268
   26  O  4  X   -0.015128   0.261313   0.140050  -0.029749  -0.082475
   27  O  4  Y    0.103544  -0.083495  -0.259559   0.204019  -0.406831
   28  O  4  Z   -0.205943  -0.061163  -0.140744  -0.405880  -0.198436
   29  O  4 XX    0.001538  -0.012119  -0.005037   0.000731   0.040689
   30  O  4 YY    0.010664   0.004028  -0.020794   0.015124   0.032764
   31  O  4 ZZ   -0.012201   0.004896   0.001289  -0.015853   0.046985
   32  O  4 XY   -0.006988   0.024777   0.003685  -0.004167  -0.000218
   33  O  4 XZ    0.011590   0.014111   0.003055   0.005088   0.000834
   34  O  4 YZ   -0.008708  -0.003803  -0.017661  -0.012769  -0.011063
   35  H  5  S   -0.000070   0.211317  -0.200119   0.000037   0.003799
   36  H  5  S   -0.000045   0.142959  -0.182222   0.000039   0.460534
   37  H  6  S    0.000002   0.042854  -0.135292   0.000005   0.057203
   38  H  6  S   -0.000002   0.040300  -0.093904   0.000005   1.264870

                     11         12         13         14         15
                    0.2803     0.3238     0.3306     0.3876     0.7624
                     A          A          A          A          A   
    1  C  1  S    0.136750  -0.012522  -0.000015   0.061341  -0.005392
    2  C  1  S   -0.113702   0.000164   0.000013  -0.035284   0.058107
    3  C  1  X    0.062987   0.048066   0.024033  -0.178311   0.074522
    4  C  1  Y    0.017878   0.300469  -0.164746   0.029133  -0.639241
    5  C  1  Z    0.004389   0.147482   0.327813   0.027775  -0.326873
    6  C  1  S   -2.459126   0.179805   0.000291  -1.031506  -0.088398
    7  C  1  X    0.202156   0.333408   0.099005  -1.612226  -0.017647
    8  C  1  Y    0.064975   1.335687  -0.678390   0.346544   1.454359
    9  C  1  Z    0.017924   0.646811   1.349759   0.292545   0.732590
   10  C  1 XX    0.011517  -0.005815  -0.000213   0.009855  -0.029037
   11  C  1 YY    0.002602   0.010072   0.007842  -0.013785   0.061549
   12  C  1 ZZ    0.005563  -0.004692  -0.007626  -0.019530  -0.047013
   13  C  1 XY    0.002722   0.004186   0.000173  -0.004577   0.045466
   14  C  1 XZ    0.000967   0.001806  -0.001976  -0.005002   0.018541
   15  C  1 YZ   -0.002615   0.010956  -0.006799   0.005153   0.078816
   16  H  2  S   -0.002789  -0.023327  -0.027614  -0.063604  -0.248260
   17  H  2  S    1.054991  -0.934808  -1.682485  -0.281686  -0.135415
   18  H  3  S   -0.002778  -0.023320   0.027643  -0.063617  -0.247948
   19  H  3  S    1.055096  -0.934419   1.682655  -0.280901  -0.135225
   20  O  4  S   -0.059195   0.009720   0.000010  -0.052717  -0.007216
   21  O  4  S    0.015558  -0.006170  -0.000013   0.036399   0.089913
   22  O  4  X   -0.033773   0.069846  -0.005236  -0.298388   0.137466
   23  O  4  Y    0.113026  -0.046027   0.036291  -0.100721  -0.044129
   24  O  4  Z    0.059281  -0.028250  -0.072193  -0.028779  -0.032298
   25  O  4  S    0.934842  -0.170225  -0.000134   0.917731   0.052793
   26  O  4  X   -0.144336   0.144180  -0.016917  -1.000736  -0.043648
   27  O  4  Y    0.270509  -0.186177   0.117111  -0.276375  -0.158990
   28  O  4  Z    0.146527  -0.104131  -0.232974  -0.065652  -0.076749
   29  O  4 XX   -0.043565  -0.001278  -0.000860   0.009632   0.063710
   30  O  4 YY   -0.030137   0.003321   0.008962  -0.033501   0.017119
   31  O  4 ZZ   -0.038485   0.003329  -0.008096  -0.030363   0.017315
   32  O  4 XY   -0.003774  -0.009006   0.002649  -0.009631  -0.001875
   33  O  4 XZ   -0.001732  -0.004199  -0.007110  -0.008229  -0.004905
   34  O  4 YZ    0.006937   0.001077  -0.007945  -0.001093   0.000256
   35  H  5  S   -0.000870   0.059926   0.000002  -0.045726   0.501629
   36  H  5  S    1.195045   1.919134  -0.000325   0.300797   0.322131
   37  H  6  S   -0.048260  -0.020625  -0.000013   0.019782  -0.106575
   38  H  6  S   -0.819927  -0.088650  -0.000094   0.952517  -0.152034

                     16         17         18         19
                    0.7745     0.7985     1.0553     1.1301
                     A          A          A          A   
    1  C  1  S    0.000005  -0.041222   0.002198   0.000001
    2  C  1  S   -0.000022   0.436439   0.090233   0.000204
    3  C  1  X    0.046679   0.996570   0.094972  -0.058049
    4  C  1  Y   -0.321215   0.100599  -0.487375   0.398250
    5  C  1  Z    0.638746  -0.022292  -0.251826  -0.792712
    6  C  1  S   -0.000030  -0.392210  -0.387693  -0.000446
    7  C  1  X   -0.111025  -1.197537  -0.059810   0.089399
    8  C  1  Y    0.764199  -0.246856   0.920229  -0.613188
    9  C  1  Z   -1.519715  -0.036617   0.466823   1.220590
   10  C  1 XX   -0.003069  -0.060973  -0.109208  -0.016206
   11  C  1 YY   -0.073592   0.031723   0.010303  -0.102535
   12  C  1 ZZ    0.076659   0.042633   0.068827   0.118773
   13  C  1 XY    0.018375   0.008632  -0.139706   0.072885
   14  C  1 XZ   -0.020982   0.013540  -0.054370  -0.122891
   15  C  1 YZ    0.062383  -0.009954  -0.029061   0.083403
   16  H  2  S    0.430676  -0.067468   0.340874   0.661713
   17  H  2  S    0.340361   0.005068  -0.500569  -1.354164
   18  H  3  S   -0.430809  -0.067562   0.340914  -0.661784
   19  H  3  S   -0.340401   0.004955  -0.500460   1.354406
   20  O  4  S   -0.000001   0.022486   0.027219   0.000003
   21  O  4  S    0.000059  -0.250068   0.014236  -0.000014
   22  O  4  X    0.012167   0.258120   0.149568   0.012175
   23  O  4  Y   -0.083471  -0.022429  -0.192988  -0.083523
   24  O  4  Z    0.166107  -0.030155  -0.107992   0.166215
   25  O  4  S   -0.000169   0.714324  -0.085314   0.000060
   26  O  4  X    0.013886   0.035190  -0.444558  -0.017187
   27  O  4  Y   -0.095186   0.076917  -0.270244   0.117925
   28  O  4  Z    0.189247   0.036111  -0.103240  -0.234730
   29  O  4 XX   -0.001006   0.119159   0.066388   0.012654
   30  O  4 YY   -0.013848  -0.116078   0.086640   0.009659
   31  O  4 ZZ    0.014902  -0.109305  -0.029797  -0.022316
   32  O  4 XY    0.005162   0.001291   0.138294  -0.050854
   33  O  4 XZ   -0.007306  -0.018614   0.058954   0.098672
   34  O  4 YZ    0.011630  -0.004463   0.073950  -0.004637
   35  H  5  S    0.000194  -0.131562  -0.349237  -0.000016
   36  H  5  S    0.000186  -0.140851   1.056185   0.000145
   37  H  6  S    0.000017  -0.088139   0.845034   0.000024
   38  H  6  S   -0.000102   0.189947  -0.403894  -0.000020

     ----------------------------------------------------------------
     PROPERTY VALUES FOR THE RHF   SELF-CONSISTENT FIELD WAVEFUNCTION
     ----------------------------------------------------------------

          -----------------
          ENERGY COMPONENTS
          -----------------

         WAVEFUNCTION NORMALIZATION =       1.0000000000

                ONE ELECTRON ENERGY =    -237.7253309052
                TWO ELECTRON ENERGY =      81.9029253529
           NUCLEAR REPULSION ENERGY =      40.7869872328
                                      ------------------
                       TOTAL ENERGY =    -115.0354183195

 ELECTRON-ELECTRON POTENTIAL ENERGY =      81.9029253529
  NUCLEUS-ELECTRON POTENTIAL ENERGY =    -352.5872337054
   NUCLEUS-NUCLEUS POTENTIAL ENERGY =      40.7869872328
                                      ------------------
             TOTAL POTENTIAL ENERGY =    -229.8973211197
               TOTAL KINETIC ENERGY =     114.8619028002
                 VIRIAL RATIO (V/T) =       2.0015106447

          ---------------------------------------
          MULLIKEN AND LOWDIN POPULATION ANALYSES
          ---------------------------------------

     MULLIKEN ATOMIC POPULATION IN EACH MOLECULAR ORBITAL

                      1          2          3          4          5

                  2.000000   2.000000   2.000000   2.000000   2.000000

    1            -0.000007   1.998494   0.229314   1.085493   0.496678
    2            -0.000003   0.000497   0.005392   0.150359   0.105012
    3            -0.000003   0.000497   0.005392   0.150342   0.104910
    4             2.000017  -0.000010   1.637549   0.365801   1.007412
    5             0.000001   0.000507   0.007816   0.173621   0.012954
    6            -0.000005   0.000015   0.114537   0.074384   0.273034

                      6          7          8          9

                  2.000000   2.000000   2.000000   2.000000

    1             0.822795   0.770011   0.501953   0.261798
    2             0.271744   0.000338   0.120958   0.205187
    3             0.271895   0.000328   0.120811   0.205316
    4             0.633566   0.863804   0.890287   1.327699
    5             0.000000   0.351289   0.279398   0.000000
    6             0.000000   0.014230   0.086593   0.000000

               ----- POPULATIONS IN EACH AO -----
                             MULLIKEN      LOWDIN
              1  C  1  S      1.99649     1.98029
              2  C  1  S      0.63741     0.34854
              3  C  1  X      0.55219     0.50816
              4  C  1  Y      0.72764     0.65071
              5  C  1  Z      0.71787     0.63858
              6  C  1  S      0.57441     0.32777
              7  C  1  X      0.13285     0.27450
              8  C  1  Y      0.37302     0.48526
              9  C  1  Z      0.34494     0.47817
             10  C  1 XX      0.02443     0.16571
             11  C  1 YY      0.02177     0.15683
             12  C  1 ZZ      0.02181     0.15756
             13  C  1 XY      0.01631     0.03159
             14  C  1 XZ      0.01671     0.03346
             15  C  1 YZ      0.00869     0.01252
             16  H  2  S      0.53916     0.50751
             17  H  2  S      0.32032     0.36367
             18  H  3  S      0.53915     0.50526
             19  H  3  S      0.32034     0.36345
             20  O  4  S      1.99530     1.97724
             21  O  4  S      0.89746     0.70509
             22  O  4  X      0.82555     0.77178
             23  O  4  Y      0.97006     0.92733
             24  O  4  Z      1.11036     1.08480
             25  O  4  S      0.91032     0.45385
             26  O  4  X      0.52095     0.56663
             27  O  4  Y      0.65360     0.68864
             28  O  4  Z      0.77002     0.78231
             29  O  4 XX      0.02571     0.18869
             30  O  4 YY      0.02419     0.18353
             31  O  4 ZZ      0.00607     0.16698
             32  O  4 XY      0.00660     0.01394
             33  O  4 XZ      0.00389     0.00866
             34  O  4 YZ      0.00605     0.00690
             35  H  5  S      0.53585     0.50046
             36  H  5  S      0.28973     0.34482
             37  H  6  S      0.47308     0.43969
             38  H  6  S      0.08971     0.19912

          ----- MULLIKEN ATOMIC OVERLAP POPULATIONS -----
          (OFF-DIAGONAL ELEMENTS NEED TO BE MULTIPLIED BY 2)

             1           2           3           4           5

    1    4.7843956
    2    0.3932171   0.5870011
    3    0.3932261  -0.0442874   0.5870037
    4    0.2193084  -0.0386732  -0.0386858   8.3573867
    5    0.4028565  -0.0337513  -0.0337487  -0.0369280   0.5217166
    6   -0.0264745  -0.0040227  -0.0040197   0.2637170   0.0054413

             6

    6    0.3281466

          TOTAL MULLIKEN AND LOWDIN ATOMIC POPULATIONS
       ATOM         MULL.POP.    CHARGE          LOW.POP.     CHARGE
    1 CARBON        6.166529   -0.166529         6.249653   -0.249653
    2 HYDROGEN      0.859484    0.140516         0.871181    0.128819
    3 HYDROGEN      0.859488    0.140512         0.868714    0.131286
    4 OXYGEN        8.726125   -0.726125         8.526366   -0.526366
    5 HYDROGEN      0.825586    0.174414         0.845282    0.154718
    6 HYDROGEN      0.562788    0.437212         0.638804    0.361196

          -------------------------------
          BOND ORDER AND VALENCE ANALYSIS     BOND ORDER THRESHOLD=0.050
          -------------------------------

                   BOND                       BOND                       BOND
  ATOM PAIR DIST  ORDER      ATOM PAIR DIST  ORDER      ATOM PAIR DIST  ORDER
    1   2  1.087  0.955        1   3  1.087  0.955        1   4  1.400  0.885
    1   5  1.081  0.960        4   6  0.946  0.772

                       TOTAL       BONDED        FREE
      ATOM            VALENCE     VALENCE     VALENCE
    1 CARBON            3.753       3.753       0.000
    2 HYDROGEN          0.929       0.929       0.000
    3 HYDROGEN          0.929       0.929       0.000
    4 OXYGEN            1.644       1.644       0.000
    5 HYDROGEN          0.930       0.930       0.000
    6 HYDROGEN          0.774       0.774       0.000

          ---------------------
          ELECTROSTATIC MOMENTS
          ---------------------

 POINT   1           X           Y           Z (BOHR)    CHARGE
                 0.152668    0.095712   -0.163745        0.00 (A.U.)
         DX          DY          DZ         /D/  (DEBYE)
    -0.919639    1.423561    0.782924    1.866878
 ...... END OF PROPERTY EVALUATION ......
 STEP CPU TIME =     0.01 TOTAL CPU TIME =       12.1 (    0.2 MIN)
 TOTAL WALL CLOCK TIME=       19.2 SECONDS, CPU UTILIZATION IS  62.88%
  $VIB   
          IVIB=   0 IATOM=   0 ICOORD=   0 E=     -115.0354183195
 -2.005611694E-05-1.726758526E-05 1.754364615E-05-3.314992169E-06 1.469969142E-06
 -2.292354854E-05 5.810556601E-06-7.385231802E-07 4.846277261E-06 1.262493098E-05
 -1.734200663E-05-2.000599811E-05-2.932931027E-06 1.095147176E-05 8.460646394E-06
  7.868550455E-06 2.292667419E-05 1.207897729E-05
 -9.196390716E-01 1.423561163E+00 7.829242222E-01
 ......END OF GEOMETRY SEARCH......
 STEP CPU TIME =     0.00 TOTAL CPU TIME =       12.1 (    0.2 MIN)
 TOTAL WALL CLOCK TIME=       19.2 SECONDS, CPU UTILIZATION IS  62.85%
               1056027  WORDS OF DYNAMIC MEMORY USED
 EXECUTION OF GAMESS TERMINATED NORMALLY Mon Jun 16 10:07:28 2008
 DDI: 263016 bytes (0.3 MB / 0 MWords) used by master data server.

 ----------------------------------------
 CPU timing information for all processes
 ========================================
 0: 11.993176 + 0.097985 = 12.091161
 ----------------------------------------
 ddikick.x: exited gracefully.
