
 Distributed Data Interface kickoff program.
 Initiating 1 compute processes on 1 nodes to run the following command:
 /u/tristan/src/gamess/gamess.00.x water 

          ******************************************************
          *         GAMESS VERSION = 12 JAN 2009 (R3)          *
          *             FROM IOWA STATE UNIVERSITY             *
          * M.W.SCHMIDT, K.K.BALDRIDGE, J.A.BOATZ, S.T.ELBERT, *
          *   M.S.GORDON, J.H.JENSEN, S.KOSEKI, N.MATSUNAGA,   *
          *          K.A.NGUYEN, S.J.SU, T.L.WINDUS,           *
          *       TOGETHER WITH M.DUPUIS, J.A.MONTGOMERY       *
          *         J.COMPUT.CHEM.  14, 1347-1363(1993)        *
          **************** 64 BIT INTEL VERSION ****************

  SINCE 1993, STUDENTS AND POSTDOCS WORKING AT IOWA STATE UNIVERSITY
  AND ALSO IN THEIR VARIOUS JOBS AFTER LEAVING ISU HAVE MADE IMPORTANT
  CONTRIBUTIONS TO THE CODE:
     IVANA ADAMOVIC, CHRISTINE AIKENS, YURI ALEXEEV, POOJA ARORA,
     ANDREY ASADCHEV, ROB BELL, PRADIPTA BANDYOPADHYAY, JONATHAN BENTZ,
     BRETT BODE, GALINA CHABAN, WEI CHEN, CHEOL HO CHOI, PAUL DAY, TIM DUDLEY,
     DMITRI FEDOROV, GRAHAM FLETCHER, MARK FREITAG, KURT GLAESEMANN, DAN KEMP,
     GRANT MERRILL, JONATHAN MULLIN, TAKESHI NAGATA, SEAN NEDD,
     HEATHER NETZLOFF, BOSILJKA NJEGIC, RYAN OLSON, MIKE PAK, JIM SHOEMAKER,
     LYUDMILA SLIPCHENKO, SAROM SOK, JIE SONG, TETSUYA TAKETSUGU,
     SIMON WEBB, SOOHAENG YOO, FEDERICO ZAHARIEV

  ADDITIONAL CODE HAS BEEN PROVIDED BY COLLABORATORS IN OTHER GROUPS:
     IOWA STATE UNIVERSITY: JOE IVANIC, KLAUS RUEDENBERG
     UNIVERSITY OF TOKYO: KIMIHIKO HIRAO, TAKAHITO NAKAJIMA,
          TAKAO TSUNEDA, MUNEAKI KAMIYA, SUSUMU YANAGISAWA,
          KIYOSHI YAGI, MAHITO CHIBA, SEIKEN TOKURA, NAOAKI KAWAKAMI
     UNIVERSITY OF AARHUS: FRANK JENSEN
     UNIVERSITY OF IOWA: VISVALDAS KAIRYS, HUI LI
     NATIONAL INST. OF STANDARDS AND TECHNOLOGY: WALT STEVENS, DAVID GARMER
     UNIVERSITY OF PISA: BENEDETTA MENNUCCI, JACOPO TOMASI
     UNIVERSITY OF MEMPHIS: HENRY KURTZ, PRAKASHAN KORAMBATH
     UNIVERSITY OF ALBERTA: MARIUSZ KLOBUKOWSKI
     UNIVERSITY OF NEW ENGLAND: MARK SPACKMAN
     MIE UNIVERSITY: HIROAKI UMEDA
     MICHIGAN STATE UNIVERSITY:
          KAROL KOWALSKI, MARTA WLOCH, JEFFREY R. GOUR, PIOTR PIECUCH
     UNIVERSITY OF SILESIA: MONIKA MUSIAL, STANISLAW KUCHARSKI
     FACULTES UNIVERSITAIRES NOTRE-DAME DE LA PAIX:
          OLIVIER QUINET, BENOIT CHAMPAGNE
     UNIVERSITY OF CALIFORNIA - SANTA BARBARA: BERNARD KIRTMAN
     INSTITUTE FOR MOLECULAR SCIENCE: KAZUYA ISHIMURA AND SHIGERU NAGASE
     UNIVERSITY OF NOTRE DAME: DAN CHIPMAN
     KYUSHU UNIVERSITY:
          HARUYUKI NAKANO,
          FENG LONG GU, JACEK KORCHOWIEC, MARCIN MAKOWSKI, AND YURIKO AOKI,
          HIROTOSHI MORI AND EISAKU MIYOSHI
     PENNSYLVANIA STATE UNIVERSITY:
          TZVETELIN IORDANOV, CHET SWALINA, JONATHAN SKONE,
          SHARON HAMMES-SCHIFFER
     WASEDA UNIVERSITY:
          MASATO KOBAYASHI, TOMOKO AKAMA, HIROMI NAKAI

 EXECUTION OF GAMESS BEGUN Tue Sep 28 10:45:23 2010

            ECHO OF THE FIRST FEW INPUT CARDS -
 INPUT CARD> $CONTRL SCFTYP=RHF RUNTYP=OPTIMIZE COORD=CART ICHARG=0 MULT=1 $END             
 INPUT CARD> $CONTRL DFTTYP=NONE TDDFT=NONE MPLEVL=0 CITYP=NONE CCTYP=NONE $END             
 INPUT CARD> $BASIS GBASIS=N31 NGAUSS=6 NDFUNC=1 NPFUNC=0 $END                              
 INPUT CARD> $BASIS NFFUNC=0 DIFFSP=.TRUE. DIFFS=.FALSE. $END                               
 INPUT CARD> $STATPT METHOD=QA NSTEP=20 OPTTOL=0.000100 HSSEND=.TRUE. $END                  
 INPUT CARD> $SYSTEM MEMDDI=16 TIMLIM=2400 MWORDS=96 $END                                   
 INPUT CARD> $GUESS GUESS=HUCKEL $END                                                       
 INPUT CARD> $SCF DIRSCF=.TRUE. $END                                                        
 INPUT CARD> $DATA                                                                          
 INPUT CARD>Water                                                                           
 INPUT CARD>C1                                                                              
 INPUT CARD>Oxygen            8.0     -0.187291     0.143406    -0.226702                   
 INPUT CARD>Hydrogen          1.0      0.519841     0.476013     0.107718                   
 INPUT CARD>Hydrogen          1.0     -0.332549    -0.619419     0.118984                   
 INPUT CARD> $END                                                                           


                    * * * WARNING * * *
 OLD KEYWORD COORD=CART SELECTED, AUTOMATICALLY CHANGED TO COORD=PRINAXIS.
 YOUR MOLECULE'S COORDINATES WILL BE CHANGED TO PRINCIPAL AXES BY
   A) TRANSLATION TO THE CENTER OF MASS, THEN
   B) ROTATION TO HAVE A DIAGONAL MOMENT OF INERTIA TENSOR.

 HOWEVER, NOTHING ELSE IN YOUR INPUT WILL BE ROTATED IN THE SAME WAY,
 SO IF YOU HAVE A $VEC, $VIB, $GRAD, $HESS, EFP PARTICLE COORDINATES,
 OR ANYTHING ELSE THAT DEPENDS ON THE INITIAL ORIENTATION, THAT DATA
 WILL NOT BE USED CORRECTLY IN THIS RUN.

 THE PURPOSE OF COORD=PRINAXIS IS TO BE USED ONCE, ONLY AT THE VERY
 BEGINNING OF A SERIES OF COMPUTATIONS, PERHAPS TO FIND THE SYMMETRY
 UNIQUE ATOMS FROM AN ARBITRARY INITIAL ORIENTATION.

 AFTER THE FIRST RUN, YOU SHOULD USE ONLY COORD=UNIQUE, TO ENSURE THAT
 THE COORDINATES WHICH YOU READ IN ARE THE COORDINATES THAT ARE USED.

   96000000 WORDS OF MEMORY AVAILABLE

     BASIS OPTIONS
     -------------
     GBASIS=N31          IGAUSS=       6      POLAR=POPN31  
     NDFUNC=       1     NFFUNC=       0     DIFFSP=       T
     NPFUNC=       0      DIFFS=       F


     RUN TITLE
     ---------
 Water                                                                           

 THE POINT GROUP OF THE MOLECULE IS C1      
 THE ORDER OF THE PRINCIPAL AXIS IS     0

 THE MOMENTS OF INERTIA ARE (AMU-ANGSTROM**2)
 IXX=     0.431   IYY=     0.971   IZZ=     1.402

 ATOM      ATOMIC                      COORDINATES (BOHR)
           CHARGE         X                   Y                   Z
 OXYGEN      8.0    -0.0000001178       -0.1037875383        0.0000000000
 HYDROGEN    1.0    -1.3115107320        0.8235922237        0.0000000000
 HYDROGEN    1.0     1.3115126012        0.8235909019        0.0000000000

          INTERNUCLEAR DISTANCES (ANGS.)
          ------------------------------

                1 OXYG       2 HYDR       3 HYDR  

   1 OXYG    0.0000000    0.8499999 *  0.8500004 *
   2 HYDR    0.8499999 *  0.0000000    1.3880443 *
   3 HYDR    0.8500004 *  1.3880443 *  0.0000000  

  * ... LESS THAN  3.000


     ATOMIC BASIS SET
     ----------------
 THE CONTRACTED PRIMITIVE FUNCTIONS HAVE BEEN UNNORMALIZED
 THE CONTRACTED BASIS FUNCTIONS ARE NOW NORMALIZED TO UNITY

  SHELL TYPE  PRIMITIVE        EXPONENT          CONTRACTION COEFFICIENT(S)

 OXYGEN    

      1   S       1          5484.6716600    0.001831074430
      1   S       2           825.2349460    0.013950172200
      1   S       3           188.0469580    0.068445078098
      1   S       4            52.9645000    0.232714335992
      1   S       5            16.8975704    0.470192897984
      1   S       6             5.7996353    0.358520852987

      2   L       7            15.5396162   -0.110777549525    0.070874268231
      2   L       8             3.5999336   -0.148026262701    0.339752839147
      2   L       9             1.0137618    1.130767015354    0.727158577316

      3   L      10             0.2700058    1.000000000000    1.000000000000

      4   L      11             0.0845000    1.000000000000    1.000000000000

      5   D      12             0.8000000    1.000000000000

 HYDROGEN  

      6   S      13            18.7311370    0.033494604338
      6   S      14             2.8253944    0.234726953484
      6   S      15             0.6401217    0.813757326146

      7   S      16             0.1612778    1.000000000000

 HYDROGEN  

      8   S      17            18.7311370    0.033494604338
      8   S      18             2.8253944    0.234726953484
      8   S      19             0.6401217    0.813757326146

      9   S      20             0.1612778    1.000000000000

 TOTAL NUMBER OF BASIS SET SHELLS             =    9
 NUMBER OF CARTESIAN GAUSSIAN BASIS FUNCTIONS =   23
 NUMBER OF ELECTRONS                          =   10
 CHARGE OF MOLECULE                           =    0
 SPIN MULTIPLICITY                            =    1
 NUMBER OF OCCUPIED ORBITALS (ALPHA)          =    5
 NUMBER OF OCCUPIED ORBITALS (BETA )          =    5
 TOTAL NUMBER OF ATOMS                        =    3
 THE NUCLEAR REPULSION ENERGY IS       10.3422212657

     $CONTRL OPTIONS
     ---------------
 SCFTYP=RHF          RUNTYP=OPTIMIZE     EXETYP=RUN     
 MPLEVL=       0     CITYP =NONE         CCTYP =NONE         VBTYP =NONE    
 DFTTYP=NONE         TDDFT =NONE    
 MULT  =       1     ICHARG=       0     NZVAR =       0     COORD =PRINAXIS
 PP    =NONE         RELWFN=NONE         LOCAL =NONE         NUMGRD=       F
 ISPHER=      -1     NOSYM =       0     MAXIT =      30     UNITS =ANGS    
 PLTORB=       F     MOLPLT=       F     AIMPAC=       F     FRIEND=        
 NPRINT=       7     IREST =       0     GEOM  =INPUT   
 NORMF =       0     NORMP =       0     ITOL  =      20     ICUT  =       9
 INTTYP=BEST         GRDTYP=BEST         QMTTOL= 1.0E-06

     $SYSTEM OPTIONS
     ---------------
  REPLICATED MEMORY=    96000000 WORDS (ON EVERY NODE).
 DISTRIBUTED MEMDDI=          16 MILLION WORDS IN AGGREGATE,
 MEMDDI DISTRIBUTED OVER   1 PROCESSORS IS    16000000 WORDS/PROCESSOR.
 TOTAL MEMORY REQUESTED ON EACH PROCESSOR=   112000000 WORDS.
 TIMLIM=        2400.00 MINUTES, OR     1.67 DAYS.
 PARALL= F  BALTYP=  DLB     KDIAG=    0  COREFL= F

          ----------------
          PROPERTIES INPUT
          ----------------

     MOMENTS            FIELD           POTENTIAL          DENSITY
 IEMOM =       1   IEFLD =       0   IEPOT =       0   IEDEN =       0
 WHERE =COMASS     WHERE =NUCLEI     WHERE =NUCLEI     WHERE =NUCLEI  
 OUTPUT=BOTH       OUTPUT=BOTH       OUTPUT=PUNCH      OUTPUT=BOTH    
 IEMINT=       0   IEFINT=       0                     IEDINT=       0
                                                       MORB  =       0
          EXTRAPOLATION IN EFFECT
          SOSCF IN EFFECT
 ORBITAL PRINTING OPTION: NPREO=     1    23     2     1

     -------------------------------
     INTEGRAL TRANSFORMATION OPTIONS
     -------------------------------
     NWORD  =         0     CUTOFF = 1.0E-09
     MPTRAN =         0     DIRTRF =       T
     AOINTS =DUP     

          ----------------------
          INTEGRAL INPUT OPTIONS
          ----------------------
 NOPK  =       1 NORDER=       0 SCHWRZ=       T

     ------------------------------------------
     THE POINT GROUP IS C1 , NAXIS= 0, ORDER= 1
     ------------------------------------------

     DIMENSIONS OF THE SYMMETRY SUBSPACES ARE
 A   =   23

 ..... DONE SETTING UP THE RUN .....
 STEP CPU TIME =     0.00 TOTAL CPU TIME =        0.0 (    0.0 MIN)
 TOTAL WALL CLOCK TIME=        0.0 SECONDS, CPU UTILIZATION IS   0.00%


          -----------------------------
          STATIONARY POINT LOCATION RUN
          -----------------------------

 OBTAINING INITIAL HESSIAN, HESS=GUESS   
 CARTESIAN COORDINATE OPTIMIZATION USING BADGER'S RULE FORCE CONSTANT GUESS

          PARAMETERS CONTROLLING GEOMETRY SEARCH ARE
          METHOD =QA                  UPHESS =BFGS    
          NNEG   =         0          NFRZ   =         0
          NSTEP  =        20          IFOLOW =         1
          HESS   =GUESS               RESTAR =         F
          IHREP  =         0          HSSEND =         T
          NPRT   =         0          NPUN   =         0
          OPTTOL = 1.000E-04          RMIN   = 1.500E-03
          RMAX   = 1.000E-01          RLIM   = 7.000E-02
          DXMAX  = 3.000E-01          PURIFY =         F
          MOVIE  =         F          TRUPD  =         T
          TRMAX  = 5.000E-01          TRMIN  = 5.000E-02
          ITBMAT =         5          STPT   =         F
          STSTEP = 1.000E-02          PROJCT=          T

 BEGINNING GEOMETRY SEARCH POINT NSERCH=   0 ...

 COORDINATES OF ALL ATOMS ARE (ANGS)
   ATOM   CHARGE       X              Y              Z
 ------------------------------------------------------------
 OXYGEN      8.0  -0.0000000623  -0.0549220040   0.0000000000
 HYDROGEN    1.0  -0.6940216415   0.4358262674   0.0000000000
 HYDROGEN    1.0   0.6940226307   0.4358255680   0.0000000000

          ********************
          1 ELECTRON INTEGRALS
          ********************
 ...... END OF ONE-ELECTRON INTEGRALS ......
 STEP CPU TIME =     0.00 TOTAL CPU TIME =        0.0 (    0.0 MIN)
 TOTAL WALL CLOCK TIME=        0.1 SECONDS, CPU UTILIZATION IS   0.00%

          -------------
          GUESS OPTIONS
          -------------
          GUESS =HUCKEL            NORB  =       0          NORDER=       0
          MIX   =       F          PRTMO =       F          PUNMO =       F
          TOLZ  = 1.0E-08          TOLE  = 1.0E-05
          SYMDEN=       F          PURIFY=       F

 INITIAL GUESS ORBITALS GENERATED BY HUCKEL   ROUTINE.
 HUCKEL GUESS REQUIRES      6265 WORDS.

 SYMMETRIES FOR INITIAL GUESS ORBITALS FOLLOW.   BOTH SET(S).
     5 ORBITALS ARE OCCUPIED (    1 CORE ORBITALS).
     2=A        3=A        4=A        5=A        6=A        7=A        8=A   
     9=A       10=A       11=A       12=A       13=A       14=A       15=A   
 ...... END OF INITIAL ORBITAL SELECTION ......
 STEP CPU TIME =     0.00 TOTAL CPU TIME =        0.0 (    0.0 MIN)
 TOTAL WALL CLOCK TIME=        0.2 SECONDS, CPU UTILIZATION IS   0.00%

                    ----------------------
                    AO INTEGRAL TECHNOLOGY
                    ----------------------
     S,P,L SHELL ROTATED AXIS INTEGRALS, REPROGRAMMED BY
        KAZUYA ISHIMURA (IMS) AND JOSE SIERRA (SYNSTAR).
     S,P,D,L SHELL ROTATED AXIS INTEGRALS PROGRAMMED BY
        KAZUYA ISHIMURA (INSTITUTE FOR MOLECULAR SCIENCE).
     S,P,D,F,G SHELL TO TOTAL QUARTET ANGULAR MOMENTUM SUM 5,
        ERIC PROGRAM BY GRAHAM FLETCHER (ELORET AND NASA ADVANCED
        SUPERCOMPUTING DIVISION, AMES RESEARCH CENTER).
     S,P,D,F,G,L SHELL GENERAL RYS QUADRATURE PROGRAMMED BY
        MICHEL DUPUIS (PACIFIC NORTHWEST NATIONAL LABORATORY).

          --------------------
          2 ELECTRON INTEGRALS
          --------------------

 DIRECT SCF METHOD SKIPS INTEGRAL STORAGE ON DISK.
 DIRECT TRANSFORMATION SKIPS AO INTEGRAL STORAGE ON DISK.
  ...... END OF TWO-ELECTRON INTEGRALS .....
 STEP CPU TIME =     0.01 TOTAL CPU TIME =        0.0 (    0.0 MIN)
 TOTAL WALL CLOCK TIME=        0.2 SECONDS, CPU UTILIZATION IS   4.76%

          --------------------------
                 RHF SCF CALCULATION
          --------------------------

     NUCLEAR ENERGY =        10.3422212657
     MAXIT =   30     NPUNCH=    2
     EXTRAP=T  DAMP=F  SHIFT=F  RSTRCT=F  DIIS=F  DEM=F  SOSCF=T
     DENSITY MATRIX CONV=  2.00E-05
     SOSCF WILL OPTIMIZE      90 ORBITAL ROTATIONS, SOGTOL=   0.250
     MEMORY REQUIRED FOR RHF ITERS=     49871 WORDS.

 DIRECT SCF CALCULATION, SCHWRZ=T   FDIFF=T,  DIRTHR=  0.00E+00 NITDIR=10
 SCHWARZ INEQUALITY OVERHEAD:       276 INTEGRALS, T=        0.00

                                                                                   NONZERO     BLOCKS
 ITER EX DEM     TOTAL ENERGY        E CHANGE  DENSITY CHANGE     ORB. GRAD      INTEGRALS    SKIPPED
   1  0  0      -75.7126386678   -75.7126386678   0.176415203   0.000000000          14604          0
          ---------------START SECOND ORDER SCF---------------
   2  1  0      -75.9748487662    -0.2622100984   0.075826575   0.041881796          14604          0
   3  2  0      -75.9898950047    -0.0150462385   0.033946376   0.018023563          14604          0
   4  3  0      -75.9918001220    -0.0019051173   0.006525077   0.005150426          14604          0
   5  4  0      -75.9919418397    -0.0001417177   0.001442486   0.000941746          14604          0
   6  5  0      -75.9919490493    -0.0000072096   0.000637170   0.000300471          14604          0
   7  6  0      -75.9919495584    -0.0000005092   0.000085055   0.000028711          14604          0
   8  7  0      -75.9919495669    -0.0000000085   0.000038147   0.000010176          14604          0
   9  8  0      -75.9919495681    -0.0000000012   0.000003393   0.000002054          14604          0

          -----------------
          DENSITY CONVERGED
          -----------------
     TIME TO FORM FOCK OPERATORS=       0.0 SECONDS (       0.0 SEC/ITER)
     FOCK TIME ON FIRST ITERATION=       0.0, LAST ITERATION=       0.0
     TIME TO SOLVE SCF EQUATIONS=       0.0 SECONDS (       0.0 SEC/ITER)

 FINAL RHF ENERGY IS      -75.9919495681 AFTER   9 ITERATIONS

          ------------
          EIGENVECTORS
          ------------

                      1          2          3          4          5
                  -20.5575    -1.4166    -0.7978    -0.5947    -0.5179
                     A          A          A          A          A   
    1  O  1  S    0.994413  -0.208950   0.000000   0.069943   0.000000
    2  O  1  S    0.021400   0.476287   0.000000  -0.170164   0.000000
    3  O  1  X    0.000000   0.000000   0.531156   0.000001   0.000000
    4  O  1  Y    0.001458   0.116022  -0.000001   0.576731   0.000000
    5  O  1  Z    0.000000   0.000000   0.000000   0.000000   0.638237
    6  O  1  S    0.005474   0.402934   0.000000  -0.275991   0.000000
    7  O  1  X    0.000000   0.000000   0.276387   0.000000   0.000000
    8  O  1  Y   -0.000704   0.050903   0.000000   0.381407   0.000000
    9  O  1  Z    0.000000   0.000000   0.000000   0.000000   0.469847
   10  O  1  S   -0.000670   0.068368   0.000000  -0.017962   0.000000
   11  O  1  X    0.000000   0.000000   0.012067   0.000000   0.000000
   12  O  1  Y    0.000319   0.019860   0.000000   0.055123   0.000000
   13  O  1  Z    0.000000   0.000000   0.000000   0.000000   0.075758
   14  O  1 XX   -0.004505   0.028561   0.000000  -0.016128   0.000000
   15  O  1 YY   -0.004452   0.021631   0.000000   0.040250   0.000000
   16  O  1 ZZ   -0.004427  -0.000914   0.000000  -0.019023   0.000000
   17  O  1 XY    0.000000   0.000000   0.048890   0.000000   0.000000
   18  O  1 XZ    0.000000   0.000000   0.000000   0.000000   0.000000
   19  O  1 YZ    0.000000   0.000000   0.000000   0.000000   0.037411
   20  H  2  S    0.000234   0.157688  -0.246336   0.134091   0.000000
   21  H  2  S   -0.000101  -0.048706  -0.062919   0.040194   0.000000
   22  H  3  S    0.000234   0.157688   0.246336   0.134092   0.000000
   23  H  3  S   -0.000101  -0.048706   0.062919   0.040194   0.000000

                      6          7          8          9         10
                    0.1456     0.2121     0.2508     0.2513     0.4046
                     A          A          A          A          A   
    1  O  1  S    0.066678   0.000000   0.000000  -0.064438   0.000001
    2  O  1  S   -0.067152   0.000000   0.000000   0.011060   0.000000
    3  O  1  X    0.000000  -0.156278   0.000000   0.000000  -0.254544
    4  O  1  Y   -0.123016   0.000000   0.000000  -0.136219  -0.000001
    5  O  1  Z    0.000000   0.000000  -0.204404   0.000000   0.000000
    6  O  1  S   -0.675805  -0.000001   0.000000   0.909027  -0.000010
    7  O  1  X    0.000000  -0.342120   0.000000   0.000000  -0.959534
    8  O  1  Y   -0.101794   0.000000   0.000000  -0.356833  -0.000004
    9  O  1  Z    0.000000   0.000000  -0.515486   0.000000   0.000000
   10  O  1  S    2.094714   0.000000   0.000000  -0.355472  -0.000021
   11  O  1  X    0.000000   1.505127   0.000000   0.000001  -1.271909
   12  O  1  Y    0.805720  -0.000001   0.000000   1.236938  -0.000005
   13  O  1  Z    0.000000   0.000000   1.234920   0.000000   0.000000
   14  O  1 XX    0.028217   0.000000   0.000000  -0.059570   0.000000
   15  O  1 YY    0.030846   0.000000   0.000000  -0.064611   0.000000
   16  O  1 ZZ    0.044260   0.000000   0.000000  -0.049905   0.000000
   17  O  1 XY    0.000000  -0.032236   0.000000   0.000000  -0.005637
   18  O  1 XZ    0.000000   0.000000   0.000000   0.000000   0.000000
   19  O  1 YZ    0.000000   0.000000  -0.009689   0.000000   0.000000
   20  H  2  S    0.028409  -0.012239   0.000000  -0.013254  -0.096310
   21  H  2  S   -0.604140   0.491443   0.000000  -0.385072  -2.528704
   22  H  3  S    0.028409   0.012239   0.000000  -0.013254   0.096311
   23  H  3  S   -0.604139  -0.491442   0.000000  -0.385072   2.528740

                     11         12         13         14         15
                    0.4228     1.2814     1.3618     1.4035     1.4374
                     A          A          A          A          A   
    1  O  1  S   -0.084717   0.000000  -0.050422   0.000000   0.000000
    2  O  1  S    0.006513   0.000001  -0.319868   0.000000   0.000007
    3  O  1  X   -0.000001  -0.309723   0.000000   0.000000   1.005967
    4  O  1  Y    0.194569   0.000001  -0.680150   0.000000   0.000004
    5  O  1  Z    0.000000   0.000000   0.000000  -0.992631   0.000000
    6  O  1  S    1.839915  -0.000004   1.267965   0.000000  -0.000017
    7  O  1  X   -0.000006   1.339727   0.000001   0.000000  -1.245176
    8  O  1  Y    0.763762  -0.000003   1.537202   0.000000  -0.000005
    9  O  1  Z    0.000000   0.000000   0.000000   1.428747   0.000000
   10  O  1  S    3.274035  -0.000001  -0.335737   0.000000  -0.000010
   11  O  1  X   -0.000008  -0.946991  -0.000002   0.000000  -0.335678
   12  O  1  Y    0.988847   0.000001  -0.601825   0.000000  -0.000003
   13  O  1  Z    0.000000   0.000000   0.000000  -0.646835   0.000000
   14  O  1 XX   -0.072365   0.000000  -0.317214   0.000000   0.000001
   15  O  1 YY   -0.033934   0.000000  -0.007461   0.000000   0.000002
   16  O  1 ZZ   -0.053668   0.000000   0.055263   0.000000   0.000003
   17  O  1 XY    0.000000  -0.224873   0.000000   0.000000  -0.209860
   18  O  1 XZ    0.000000   0.000000   0.000000   0.000000   0.000000
   19  O  1 YZ    0.000000   0.000000   0.000000   0.026941   0.000000
   20  H  2  S   -0.103777   0.772665  -0.591511   0.000000   0.412553
   21  H  2  S   -2.908648  -0.822130   0.064979   0.000000  -1.469359
   22  H  3  S   -0.103775  -0.772665  -0.591514   0.000000  -0.412560
   23  H  3  S   -2.908612   0.822134   0.064986   0.000000   1.469385

                     16         17         18         19         20
                    1.4668     1.4994     1.9866     1.9957     2.0401
                     A          A          A          A          A   
    1  O  1  S   -0.084629  -0.007046   0.000000   0.008235   0.000000
    2  O  1  S   -1.522737  -1.022855   0.000000   0.032389   0.000000
    3  O  1  X    0.000001   0.000006   0.000000   0.000000   0.000000
    4  O  1  Y    0.443172  -0.622778   0.000000  -0.015338   0.000000
    5  O  1  Z    0.000000   0.000000   0.000000   0.000000   0.000886
    6  O  1  S    3.732861   2.401199   0.000000  -0.170723   0.000000
    7  O  1  X   -0.000001  -0.000007   0.000000   0.000000   0.000000
    8  O  1  Y   -0.327105   0.666467   0.000000  -0.150105   0.000000
    9  O  1  Z    0.000000   0.000000   0.000000   0.000000  -0.061132
   10  O  1  S   -0.715817   1.687657   0.000000   0.075988   0.000000
   11  O  1  X    0.000000  -0.000002   0.000000   0.000000   0.000000
   12  O  1  Y    0.371706   0.574926   0.000000   0.062786   0.000000
   13  O  1  Z    0.000000   0.000000   0.000000   0.000000   0.026587
   14  O  1 XX   -0.631643  -0.022318   0.000000  -0.492328   0.000000
   15  O  1 YY   -0.449992  -0.301050   0.000000   1.004620   0.000000
   16  O  1 ZZ   -0.343250  -0.439588   0.000000  -0.479257   0.000000
   17  O  1 XY    0.000000  -0.000002   0.000000   0.000001   0.000000
   18  O  1 XZ    0.000000   0.000000   1.000000   0.000000   0.000001
   19  O  1 YZ    0.000000   0.000000  -0.000001   0.000000   0.998890
   20  H  2  S   -0.226719   0.694630   0.000000   0.122971   0.000000
   21  H  2  S   -0.358009  -2.083036   0.000000  -0.044713   0.000000
   22  H  3  S   -0.226720   0.694623   0.000000   0.122971   0.000000
   23  H  3  S   -0.358006  -2.083015   0.000000  -0.044713   0.000000

                     21         22         23
                    2.7781     3.2286     4.1723
                     A          A          A   
    1  O  1  S   -0.073505   0.000000  -0.501212
    2  O  1  S   -0.339364   0.000000   0.107365
    3  O  1  X    0.000000   0.161464   0.000000
    4  O  1  Y    0.089259  -0.000001  -0.078155
    5  O  1  Z    0.000000   0.000000   0.000000
    6  O  1  S    1.781939  -0.000003   4.418912
    7  O  1  X    0.000001   1.244180   0.000000
    8  O  1  Y    0.845747  -0.000002   0.080082
    9  O  1  Z    0.000000   0.000000   0.000000
   10  O  1  S   -0.260451   0.000000   0.029283
   11  O  1  X   -0.000001  -0.433428   0.000000
   12  O  1  Y   -0.158299   0.000000   0.333948
   13  O  1  Z    0.000000   0.000000   0.000000
   14  O  1 XX    0.894065   0.000001  -1.740570
   15  O  1 YY   -0.064501  -0.000002  -1.689102
   16  O  1 ZZ   -1.127404   0.000001  -1.636735
   17  O  1 XY    0.000000   1.413455   0.000000
   18  O  1 XZ    0.000000   0.000000   0.000000
   19  O  1 YZ    0.000000   0.000000   0.000000
   20  H  2  S   -1.128011   1.351089   0.294898
   21  H  2  S    0.023233  -0.374367  -0.854105
   22  H  3  S   -1.128013  -1.351085   0.294897
   23  H  3  S    0.023235   0.374368  -0.854103
 ...... END OF RHF CALCULATION ......
 STEP CPU TIME =     0.06 TOTAL CPU TIME =        0.1 (    0.0 MIN)
 TOTAL WALL CLOCK TIME=        0.6 SECONDS, CPU UTILIZATION IS  12.73%

     ----------------------------------------------------------------
     PROPERTY VALUES FOR THE RHF   SELF-CONSISTENT FIELD WAVEFUNCTION
     ----------------------------------------------------------------

          -----------------
          ENERGY COMPONENTS
          -----------------

         WAVEFUNCTION NORMALIZATION =       1.0000000000

                ONE ELECTRON ENERGY =    -124.8992856438
                TWO ELECTRON ENERGY =      38.5651148100
           NUCLEAR REPULSION ENERGY =      10.3422212657
                                      ------------------
                       TOTAL ENERGY =     -75.9919495681

 ELECTRON-ELECTRON POTENTIAL ENERGY =      38.5651148100
  NUCLEUS-ELECTRON POTENTIAL ENERGY =    -201.1726848026
   NUCLEUS-NUCLEUS POTENTIAL ENERGY =      10.3422212657
                                      ------------------
             TOTAL POTENTIAL ENERGY =    -152.2653487269
               TOTAL KINETIC ENERGY =      76.2733991588
                 VIRIAL RATIO (V/T) =       1.9963099902

  ...... PI ENERGY ANALYSIS ......

 ENERGY ANALYSIS:
            FOCK ENERGY=    -47.7690348924
          BARE H ENERGY=   -124.8992856438
     ELECTRONIC ENERGY =    -86.3341602681
         KINETIC ENERGY=     76.2733991588
          N-N REPULSION=     10.3422212657
           TOTAL ENERGY=    -75.9919390024
        SIGMA PART(1+2)=    -78.7070084834
               (K,V1,2)=     71.8012595868   -182.4820410351     31.9737729648
           PI PART(1+2)=     -7.6271517847
               (K,V1,2)=      4.4721395719    -18.6906437675      6.5913524109
  SIGMA SKELETON, ERROR=    -68.3647872177      0.0000000000
             MIXED PART= 0.00000E+00 0.00000E+00 0.00000E+00 0.00000E+00
 ...... END OF PI ENERGY ANALYSIS ......

          ---------------------------------------
          MULLIKEN AND LOWDIN POPULATION ANALYSES
          ---------------------------------------

     MULLIKEN ATOMIC POPULATION IN EACH MOLECULAR ORBITAL

                      1          2          3          4          5

                  2.000000   2.000000   2.000000   2.000000   2.000000

    1             1.999979   1.773205   1.375697   1.855445   2.000000
    2             0.000010   0.113398   0.312152   0.072277   0.000000
    3             0.000010   0.113398   0.312152   0.072278   0.000000

               ----- POPULATIONS IN EACH AO -----
                             MULLIKEN      LOWDIN
              1  O  1  S      1.99497     1.97755
              2  O  1  S      0.90800     0.69648
              3  O  1  X      0.88016     0.81330
              4  O  1  Y      1.01393     0.96449
              5  O  1  Z      1.13173     1.09981
              6  O  1  S      0.84800     0.40803
              7  O  1  X      0.46272     0.49375
              8  O  1  Y      0.64707     0.64484
              9  O  1  Z      0.79002     0.75685
             10  O  1  S      0.09088     0.08989
             11  O  1  X      0.01124     0.06767
             12  O  1  Y      0.05705     0.11589
             13  O  1  Z      0.07545     0.14054
             14  O  1 XX      0.04445     0.19775
             15  O  1 YY      0.01776     0.16280
             16  O  1 ZZ      0.00651     0.15021
             17  O  1 XY      0.02157     0.02933
             18  O  1 XZ      0.00000     0.00000
             19  O  1 YZ      0.00280     0.00280
             20  H  2  S      0.51857     0.45450
             21  H  2  S     -0.02073     0.13952
             22  H  3  S      0.51857     0.45450
             23  H  3  S     -0.02073     0.13952

          ----- MULLIKEN ATOMIC OVERLAP POPULATIONS -----
          (OFF-DIAGONAL ELEMENTS NEED TO BE MULTIPLIED BY 2)

             1           2           3

    1    8.4804710
    2    0.2619272   0.2577288
    3    0.2619272  -0.0218188   0.2577289

          TOTAL MULLIKEN AND LOWDIN ATOMIC POPULATIONS
       ATOM         MULL.POP.    CHARGE          LOW.POP.     CHARGE
    1 OXYGEN        9.004325   -1.004325         8.811974   -0.811974
    2 HYDROGEN      0.497837    0.502163         0.594013    0.405987
    3 HYDROGEN      0.497837    0.502163         0.594013    0.405987

          -------------------------------
          BOND ORDER AND VALENCE ANALYSIS     BOND ORDER THRESHOLD=0.050
          -------------------------------

                   BOND                       BOND                       BOND
  ATOM PAIR DIST  ORDER      ATOM PAIR DIST  ORDER      ATOM PAIR DIST  ORDER
    1   2  0.850  0.707        1   3  0.850  0.707

                       TOTAL       BONDED        FREE
      ATOM            VALENCE     VALENCE     VALENCE
    1 OXYGEN            1.413       1.413       0.000
    2 HYDROGEN          0.700       0.700       0.000
    3 HYDROGEN          0.700       0.700       0.000

          ---------------------
          ELECTROSTATIC MOMENTS
          ---------------------

 POINT   1           X           Y           Z (BOHR)    CHARGE
                 0.000000    0.000000    0.000000        0.00 (A.U.)
         DX          DY          DZ         /D/  (DEBYE)
     0.000002    2.119213    0.000000    2.119213
 ...... END OF PROPERTY EVALUATION ......
 STEP CPU TIME =     0.01 TOTAL CPU TIME =        0.1 (    0.0 MIN)
 TOTAL WALL CLOCK TIME=        0.6 SECONDS, CPU UTILIZATION IS  12.50%

 BEGINNING ONE ELECTRON GRADIENT...
 ..... END OF 1-ELECTRON GRADIENT ......
 STEP CPU TIME =     0.00 TOTAL CPU TIME =        0.1 (    0.0 MIN)
 TOTAL WALL CLOCK TIME=        0.7 SECONDS, CPU UTILIZATION IS  11.27%

          ----------------------
          GRADIENT OF THE ENERGY
          ----------------------

 THE MINIMUM MEMORY REQUIRED FOR THIS RUN IS      71372 WORDS.
 USING    1046892 WORDS FOR 2E- DERIVATIVE INTEGRAL CONTRIBUTIONS.
 THE COARSE/FINE SCHWARZ SCREENINGS SKIPPED            0/           0 BLOCKS.
 THE NUMBER OF GRADIENT INTEGRAL BLOCKS COMPUTED WAS       903
 ...... END OF 2-ELECTRON GRADIENT ......
 STEP CPU TIME =     0.01 TOTAL CPU TIME =        0.1 (    0.0 MIN)
 TOTAL WALL CLOCK TIME=        0.8 SECONDS, CPU UTILIZATION IS  12.00%

          NSERCH=  0     ENERGY=     -75.9919496

                                 -----------------------
                                 GRADIENT (HARTREE/BOHR)
                                 -----------------------
        ATOM     ZNUC       DE/DX         DE/DY         DE/DZ
 --------------------------------------------------------------
  1  OXYGEN       8.0    -0.0000008     0.1805959     0.0000000
  2  HYDROGEN     1.0     0.1286504    -0.0902983     0.0000000
  3  HYDROGEN     1.0    -0.1286496    -0.0902975     0.0000000

          MAXIMUM GRADIENT =  0.1805959    RMS GRADIENT = 0.0954661
          FORCE CONSTANT MATRIX NOT UPDATED --- TAKING FIRST STEP
          MIN SEARCH, CORRECT HESSIAN, TRYING PURE NR STEP
               NR STEP HAS LENGTH         =   0.489008
          TRIM/QA LAMBDA FOR NON-TS MODES =  -0.19752449
          TRIM/QA STEP HAS LENGTH         =   0.300000
          RADIUS OF STEP TAKEN=   0.30000  CURRENT TRUST RADIUS=   0.30000

 BEGINNING GEOMETRY SEARCH POINT NSERCH=   1 ...

 COORDINATES OF ALL ATOMS ARE (ANGS)
   ATOM   CHARGE       X              Y              Z
 ------------------------------------------------------------
 OXYGEN      8.0   0.0000002096  -0.1722023351   0.0000000000
 HYDROGEN    1.0  -0.7418263609   0.4944666003   0.0000000000
 HYDROGEN    1.0   0.7418270781   0.4944655663   0.0000000000

          INTERNUCLEAR DISTANCES (ANGS.)
          ------------------------------

                1 OXYG       2 HYDR       3 HYDR  

   1 OXYG    0.0000000    0.9973736 *  0.9973731 *
   2 HYDR    0.9973736 *  0.0000000    1.4836534 *
   3 HYDR    0.9973731 *  1.4836534 *  0.0000000  

  * ... LESS THAN  3.000

 ...... END OF ONE-ELECTRON INTEGRALS ......
 STEP CPU TIME =     0.00 TOTAL CPU TIME =        0.1 (    0.0 MIN)
 TOTAL WALL CLOCK TIME=        0.8 SECONDS, CPU UTILIZATION IS  11.69%
  ...... END OF TWO-ELECTRON INTEGRALS .....
 STEP CPU TIME =     0.00 TOTAL CPU TIME =        0.1 (    0.0 MIN)
 TOTAL WALL CLOCK TIME=        0.8 SECONDS, CPU UTILIZATION IS  10.84%

          --------------------------
                 RHF SCF CALCULATION
          --------------------------
     DENSITY MATRIX CONV=  4.00E-04

 DIRECT SCF CALCULATION, SCHWRZ=T   FDIFF=T,  DIRTHR=  0.00E+00 NITDIR=10

                                                                                   NONZERO     BLOCKS
 ITER EX DEM     TOTAL ENERGY        E CHANGE  DENSITY CHANGE     ORB. GRAD      INTEGRALS    SKIPPED
          ---------------START SECOND ORDER SCF---------------
   1  0  0      -75.9901057127   -75.9901057127   0.082113123   0.067967492          14600          0
   2  1  0      -76.0071336762    -0.0170279634   0.038711934   0.031158696          14600          0
   3  2  0      -76.0104409199    -0.0033072437   0.008836991   0.004605936          14600          0
   4  3  0      -76.0106503884    -0.0002094685   0.003729263   0.001734963          14600          0
   5  4  0      -76.0106766504    -0.0000262621   0.000680721   0.000237614          14600          0
   6  5  0      -76.0106775011    -0.0000008506   0.000291727   0.000099219          14600          0
   7  6  0      -76.0106776382    -0.0000001371   0.000037169   0.000027677          14600          0

          -----------------
          DENSITY CONVERGED
          -----------------
     TIME TO FORM FOCK OPERATORS=       0.0 SECONDS (       0.0 SEC/ITER)
     FOCK TIME ON FIRST ITERATION=       0.0, LAST ITERATION=       0.0
     TIME TO SOLVE SCF EQUATIONS=       0.0 SECONDS (       0.0 SEC/ITER)

 FINAL RHF ENERGY IS      -76.0106776382 AFTER   7 ITERATIONS
 ...... END OF RHF CALCULATION ......
 STEP CPU TIME =     0.05 TOTAL CPU TIME =        0.1 (    0.0 MIN)
 TOTAL WALL CLOCK TIME=        1.1 SECONDS, CPU UTILIZATION IS  13.08%
 ..... END OF 1-ELECTRON GRADIENT ......
 STEP CPU TIME =     0.00 TOTAL CPU TIME =        0.1 (    0.0 MIN)
 TOTAL WALL CLOCK TIME=        1.1 SECONDS, CPU UTILIZATION IS  12.39%
 ...... END OF 2-ELECTRON GRADIENT ......
 STEP CPU TIME =     0.01 TOTAL CPU TIME =        0.2 (    0.0 MIN)
 TOTAL WALL CLOCK TIME=        1.2 SECONDS, CPU UTILIZATION IS  13.04%

          NSERCH=  1     ENERGY=     -76.0106776

                                 -----------------------
                                 GRADIENT (HARTREE/BOHR)
                                 -----------------------
        ATOM     ZNUC       DE/DX         DE/DY         DE/DZ
 --------------------------------------------------------------
  1  OXYGEN       8.0     0.0000003    -0.0819887     0.0000000
  2  HYDROGEN     1.0    -0.0214909     0.0409945     0.0000000
  3  HYDROGEN     1.0     0.0214906     0.0409942     0.0000000

          MAXIMUM GRADIENT =  0.0819887    RMS GRADIENT = 0.0349713
          HESSIAN UPDATED USING THE BFGS FORMULA
             ACTUAL ENERGY CHANGE WAS  -0.0187280701
          PREDICTED ENERGY CHANGE WAS  -0.0505293077 RATIO=  0.371
          MIN SEARCH, CORRECT HESSIAN, TRYING PURE NR STEP
               NR STEP HAS LENGTH         =   0.342129
          TRIM/QA LAMBDA FOR NON-TS MODES =  -0.01388221
          TRIM/QA STEP HAS LENGTH         =   0.300000
          RADIUS OF STEP TAKEN=   0.30000  CURRENT TRUST RADIUS=   0.30000

 BEGINNING GEOMETRY SEARCH POINT NSERCH=   2 ...

 COORDINATES OF ALL ATOMS ARE (ANGS)
   ATOM   CHARGE       X              Y              Z
 ------------------------------------------------------------
 OXYGEN      8.0   0.0000002477  -0.0746698440   0.0000000000
 HYDROGEN    1.0  -0.8157644968   0.4457004136   0.0000000000
 HYDROGEN    1.0   0.8157651759   0.4456992619   0.0000000000

          INTERNUCLEAR DISTANCES (ANGS.)
          ------------------------------

                1 OXYG       2 HYDR       3 HYDR  

   1 OXYG    0.0000000    0.9676039 *  0.9676034 *
   2 HYDR    0.9676039 *  0.0000000    1.6315297 *
   3 HYDR    0.9676034 *  1.6315297 *  0.0000000  

  * ... LESS THAN  3.000

 ...... END OF ONE-ELECTRON INTEGRALS ......
 STEP CPU TIME =     0.00 TOTAL CPU TIME =        0.2 (    0.0 MIN)
 TOTAL WALL CLOCK TIME=        1.2 SECONDS, CPU UTILIZATION IS  12.71%
  ...... END OF TWO-ELECTRON INTEGRALS .....
 STEP CPU TIME =     0.00 TOTAL CPU TIME =        0.2 (    0.0 MIN)
 TOTAL WALL CLOCK TIME=        1.2 SECONDS, CPU UTILIZATION IS  12.10%

          --------------------------
                 RHF SCF CALCULATION
          --------------------------
     DENSITY MATRIX CONV=  4.00E-04

 DIRECT SCF CALCULATION, SCHWRZ=T   FDIFF=T,  DIRTHR=  0.00E+00 NITDIR=10

                                                                                   NONZERO     BLOCKS
 ITER EX DEM     TOTAL ENERGY        E CHANGE  DENSITY CHANGE     ORB. GRAD      INTEGRALS    SKIPPED
          ---------------START SECOND ORDER SCF---------------
   1  0  0      -76.0099823944   -76.0099823944   0.033737986   0.024923175          14599          0
   2  1  0      -76.0142787691    -0.0042963746   0.013145558   0.006969731          14599          0
   3  2  0      -76.0146859625    -0.0004071935   0.004984257   0.004147389          14599          0
   4  3  0      -76.0147571403    -0.0000711778   0.001497750   0.000587714          14599          0
   5  4  0      -76.0147615597    -0.0000044193   0.000694249   0.000216001          14599          0
   6  5  0      -76.0147620796    -0.0000005199   0.000088417   0.000046668          14599          0
   7  6  0      -76.0147620975    -0.0000000179   0.000041899   0.000017270          14599          0

          -----------------
          DENSITY CONVERGED
          -----------------
     TIME TO FORM FOCK OPERATORS=       0.0 SECONDS (       0.0 SEC/ITER)
     FOCK TIME ON FIRST ITERATION=       0.0, LAST ITERATION=       0.0
     TIME TO SOLVE SCF EQUATIONS=       0.0 SECONDS (       0.0 SEC/ITER)

 FINAL RHF ENERGY IS      -76.0147620975 AFTER   7 ITERATIONS
 ...... END OF RHF CALCULATION ......
 STEP CPU TIME =     0.05 TOTAL CPU TIME =        0.2 (    0.0 MIN)
 TOTAL WALL CLOCK TIME=        1.5 SECONDS, CPU UTILIZATION IS  13.42%
 ..... END OF 1-ELECTRON GRADIENT ......
 STEP CPU TIME =     0.00 TOTAL CPU TIME =        0.2 (    0.0 MIN)
 TOTAL WALL CLOCK TIME=        1.5 SECONDS, CPU UTILIZATION IS  12.99%
 ...... END OF 2-ELECTRON GRADIENT ......
 STEP CPU TIME =     0.00 TOTAL CPU TIME =        0.2 (    0.0 MIN)
 TOTAL WALL CLOCK TIME=        1.6 SECONDS, CPU UTILIZATION IS  12.74%

          NSERCH=  2     ENERGY=     -76.0147621

                                 -----------------------
                                 GRADIENT (HARTREE/BOHR)
                                 -----------------------
        ATOM     ZNUC       DE/DX         DE/DY         DE/DZ
 --------------------------------------------------------------
  1  OXYGEN       8.0     0.0000004    -0.0021008     0.0000000
  2  HYDROGEN     1.0    -0.0287626     0.0010505     0.0000000
  3  HYDROGEN     1.0     0.0287622     0.0010502     0.0000000

          MAXIMUM GRADIENT =  0.0287626    RMS GRADIENT = 0.0135858
          HESSIAN UPDATED USING THE BFGS FORMULA
             ACTUAL ENERGY CHANGE WAS  -0.0040844592
          PREDICTED ENERGY CHANGE WAS  -0.0089554325 RATIO=  0.456
          MIN SEARCH, CORRECT HESSIAN, TRYING PURE NR STEP
               NR STEP HAS LENGTH         =   0.158844
          RADIUS OF STEP TAKEN=   0.15884  CURRENT TRUST RADIUS=   0.30000

 BEGINNING GEOMETRY SEARCH POINT NSERCH=   3 ...

 COORDINATES OF ALL ATOMS ARE (ANGS)
   ATOM   CHARGE       X              Y              Z
 ------------------------------------------------------------
 OXYGEN      8.0   0.0000000423  -0.1009343386   0.0000000000
 HYDROGEN    1.0  -0.7608516766   0.4588325580   0.0000000000
 HYDROGEN    1.0   0.7608525607   0.4588316119   0.0000000000

          INTERNUCLEAR DISTANCES (ANGS.)
          ------------------------------

                1 OXYG       2 HYDR       3 HYDR  

   1 OXYG    0.0000000    0.9445816 *  0.9445816 *
   2 HYDR    0.9445816 *  0.0000000    1.5217042 *
   3 HYDR    0.9445816 *  1.5217042 *  0.0000000  

  * ... LESS THAN  3.000

 ...... END OF ONE-ELECTRON INTEGRALS ......
 STEP CPU TIME =     0.00 TOTAL CPU TIME =        0.2 (    0.0 MIN)
 TOTAL WALL CLOCK TIME=        1.6 SECONDS, CPU UTILIZATION IS  12.50%
  ...... END OF TWO-ELECTRON INTEGRALS .....
 STEP CPU TIME =     0.00 TOTAL CPU TIME =        0.2 (    0.0 MIN)
 TOTAL WALL CLOCK TIME=        1.7 SECONDS, CPU UTILIZATION IS  12.12%

          --------------------------
                 RHF SCF CALCULATION
          --------------------------
     DENSITY MATRIX CONV=  1.00E-04

 DIRECT SCF CALCULATION, SCHWRZ=T   FDIFF=T,  DIRTHR=  0.00E+00 NITDIR=10

                                                                                   NONZERO     BLOCKS
 ITER EX DEM     TOTAL ENERGY        E CHANGE  DENSITY CHANGE     ORB. GRAD      INTEGRALS    SKIPPED
          ---------------START SECOND ORDER SCF---------------
   1  0  0      -76.0168640649   -76.0168640649   0.011886474   0.012750589          14603          0
   2  1  0      -76.0176502241    -0.0007861592   0.005499957   0.003919718          14603          0
   3  2  0      -76.0177018230    -0.0000515989   0.001349994   0.001063477          14603          0
   4  3  0      -76.0177097085    -0.0000078855   0.000575053   0.000122200          14603          0
   5  4  0      -76.0177098176    -0.0000001091   0.000164529   0.000034759          14603          0
   6  5  0      -76.0177098269    -0.0000000094   0.000017320   0.000006498          14603          0
   7  6  0      -76.0177098274    -0.0000000004   0.000013050   0.000002924          14603          0

          -----------------
          DENSITY CONVERGED
          -----------------
     TIME TO FORM FOCK OPERATORS=       0.0 SECONDS (       0.0 SEC/ITER)
     FOCK TIME ON FIRST ITERATION=       0.0, LAST ITERATION=       0.0
     TIME TO SOLVE SCF EQUATIONS=       0.0 SECONDS (       0.0 SEC/ITER)

 FINAL RHF ENERGY IS      -76.0177098274 AFTER   7 ITERATIONS
 ...... END OF RHF CALCULATION ......
 STEP CPU TIME =     0.04 TOTAL CPU TIME =        0.2 (    0.0 MIN)
 TOTAL WALL CLOCK TIME=        1.9 SECONDS, CPU UTILIZATION IS  12.83%
 ..... END OF 1-ELECTRON GRADIENT ......
 STEP CPU TIME =     0.00 TOTAL CPU TIME =        0.2 (    0.0 MIN)
 TOTAL WALL CLOCK TIME=        1.9 SECONDS, CPU UTILIZATION IS  12.50%
 ...... END OF 2-ELECTRON GRADIENT ......
 STEP CPU TIME =     0.01 TOTAL CPU TIME =        0.2 (    0.0 MIN)
 TOTAL WALL CLOCK TIME=        1.9 SECONDS, CPU UTILIZATION IS  12.82%

          NSERCH=  3     ENERGY=     -76.0177098

                                 -----------------------
                                 GRADIENT (HARTREE/BOHR)
                                 -----------------------
        ATOM     ZNUC       DE/DX         DE/DY         DE/DZ
 --------------------------------------------------------------
  1  OXYGEN       8.0    -0.0000001     0.0057377     0.0000000
  2  HYDROGEN     1.0     0.0017753    -0.0028689     0.0000000
  3  HYDROGEN     1.0    -0.0017753    -0.0028688     0.0000000

          MAXIMUM GRADIENT =  0.0057377    RMS GRADIENT = 0.0024874
          HESSIAN UPDATED USING THE BFGS FORMULA
             ACTUAL ENERGY CHANGE WAS  -0.0029477299
          PREDICTED ENERGY CHANGE WAS  -0.0029064691 RATIO=  1.014
          MIN SEARCH, CORRECT HESSIAN, TRYING PURE NR STEP
               NR STEP HAS LENGTH         =   0.012438
          RADIUS OF STEP TAKEN=   0.01244  CURRENT TRUST RADIUS=   0.31769

 BEGINNING GEOMETRY SEARCH POINT NSERCH=   4 ...

 COORDINATES OF ALL ATOMS ARE (ANGS)
   ATOM   CHARGE       X              Y              Z
 ------------------------------------------------------------
 OXYGEN      8.0   0.0000000812  -0.1060260859   0.0000000000
 HYDROGEN    1.0  -0.7593626880   0.4613784464   0.0000000000
 HYDROGEN    1.0   0.7593635332   0.4613774709   0.0000000000

          INTERNUCLEAR DISTANCES (ANGS.)
          ------------------------------

                1 OXYG       2 HYDR       3 HYDR  

   1 OXYG    0.0000000    0.9479344 *  0.9479344 *
   2 HYDR    0.9479344 *  0.0000000    1.5187262 *
   3 HYDR    0.9479344 *  1.5187262 *  0.0000000  

  * ... LESS THAN  3.000

 ...... END OF ONE-ELECTRON INTEGRALS ......
 STEP CPU TIME =     0.00 TOTAL CPU TIME =        0.2 (    0.0 MIN)
 TOTAL WALL CLOCK TIME=        2.0 SECONDS, CPU UTILIZATION IS  12.69%
  ...... END OF TWO-ELECTRON INTEGRALS .....
 STEP CPU TIME =     0.00 TOTAL CPU TIME =        0.2 (    0.0 MIN)
 TOTAL WALL CLOCK TIME=        2.0 SECONDS, CPU UTILIZATION IS  12.32%

          --------------------------
                 RHF SCF CALCULATION
          --------------------------
     DENSITY MATRIX CONV=  2.00E-05

 DIRECT SCF CALCULATION, SCHWRZ=T   FDIFF=T,  DIRTHR=  0.00E+00 NITDIR=10

                                                                                   NONZERO     BLOCKS
 ITER EX DEM     TOTAL ENERGY        E CHANGE  DENSITY CHANGE     ORB. GRAD      INTEGRALS    SKIPPED
          ---------------START SECOND ORDER SCF---------------
   1  0  0      -76.0177247259   -76.0177247259   0.002333118   0.001651749          14603          0
   2  1  0      -76.0177403929    -0.0000156670   0.001112552   0.000756867          14603          0
   3  2  0      -76.0177426877    -0.0000022948   0.000170551   0.000194654          14603          0
   4  3  0      -76.0177428521    -0.0000001644   0.000080021   0.000034566          14603          0
   5  4  0      -76.0177428659    -0.0000000139   0.000019203   0.000008840          14603          0
   6  5  0      -76.0177428666    -0.0000000006   0.000005071   0.000002402          14603          0

          -----------------
          DENSITY CONVERGED
          -----------------
     TIME TO FORM FOCK OPERATORS=       0.0 SECONDS (       0.0 SEC/ITER)
     FOCK TIME ON FIRST ITERATION=       0.0, LAST ITERATION=       0.0
     TIME TO SOLVE SCF EQUATIONS=       0.0 SECONDS (       0.0 SEC/ITER)

 FINAL RHF ENERGY IS      -76.0177428666 AFTER   6 ITERATIONS
 ...... END OF RHF CALCULATION ......
 STEP CPU TIME =     0.04 TOTAL CPU TIME =        0.3 (    0.0 MIN)
 TOTAL WALL CLOCK TIME=        2.2 SECONDS, CPU UTILIZATION IS  13.18%
 ..... END OF 1-ELECTRON GRADIENT ......
 STEP CPU TIME =     0.00 TOTAL CPU TIME =        0.3 (    0.0 MIN)
 TOTAL WALL CLOCK TIME=        2.2 SECONDS, CPU UTILIZATION IS  12.89%
 ...... END OF 2-ELECTRON GRADIENT ......
 STEP CPU TIME =     0.01 TOTAL CPU TIME =        0.3 (    0.0 MIN)
 TOTAL WALL CLOCK TIME=        2.3 SECONDS, CPU UTILIZATION IS  13.22%

          NSERCH=  4     ENERGY=     -76.0177429

                                 -----------------------
                                 GRADIENT (HARTREE/BOHR)
                                 -----------------------
        ATOM     ZNUC       DE/DX         DE/DY         DE/DZ
 --------------------------------------------------------------
  1  OXYGEN       8.0     0.0000000    -0.0005674     0.0000000
  2  HYDROGEN     1.0    -0.0002389     0.0002837     0.0000000
  3  HYDROGEN     1.0     0.0002388     0.0002837     0.0000000

          MAXIMUM GRADIENT =  0.0005674    RMS GRADIENT = 0.0002576
          HESSIAN UPDATED USING THE BFGS FORMULA
             ACTUAL ENERGY CHANGE WAS  -0.0000330392
          PREDICTED ENERGY CHANGE WAS  -0.0000364109 RATIO=  0.907
          MIN SEARCH, CORRECT HESSIAN, TRYING PURE NR STEP
               NR STEP HAS LENGTH         =   0.000904
          RADIUS OF STEP TAKEN=   0.00090  CURRENT TRUST RADIUS=   0.05000

 BEGINNING GEOMETRY SEARCH POINT NSERCH=   5 ...

 COORDINATES OF ALL ATOMS ARE (ANGS)
   ATOM   CHARGE       X              Y              Z
 ------------------------------------------------------------
 OXYGEN      8.0   0.0000000638  -0.1056358317   0.0000000000
 HYDROGEN    1.0  -0.7593796361   0.4611833128   0.0000000000
 HYDROGEN    1.0   0.7593804987   0.4611823503   0.0000000000

          INTERNUCLEAR DISTANCES (ANGS.)
          ------------------------------

                1 OXYG       2 HYDR       3 HYDR  

   1 OXYG    0.0000000    0.9475977 *  0.9475978 *
   2 HYDR    0.9475977 *  0.0000000    1.5187601 *
   3 HYDR    0.9475978 *  1.5187601 *  0.0000000  

  * ... LESS THAN  3.000

 ...... END OF ONE-ELECTRON INTEGRALS ......
 STEP CPU TIME =     0.00 TOTAL CPU TIME =        0.3 (    0.0 MIN)
 TOTAL WALL CLOCK TIME=        2.3 SECONDS, CPU UTILIZATION IS  12.99%
  ...... END OF TWO-ELECTRON INTEGRALS .....
 STEP CPU TIME =     0.00 TOTAL CPU TIME =        0.3 (    0.0 MIN)
 TOTAL WALL CLOCK TIME=        2.4 SECONDS, CPU UTILIZATION IS  12.77%

          --------------------------
                 RHF SCF CALCULATION
          --------------------------
     DENSITY MATRIX CONV=  2.00E-05

 DIRECT SCF CALCULATION, SCHWRZ=T   FDIFF=T,  DIRTHR=  0.00E+00 NITDIR=10

                                                                                   NONZERO     BLOCKS
 ITER EX DEM     TOTAL ENERGY        E CHANGE  DENSITY CHANGE     ORB. GRAD      INTEGRALS    SKIPPED
          ---------------START SECOND ORDER SCF---------------
   1  0  0      -76.0177430392   -76.0177430392   0.000188106   0.000157452          14603          0
   2  1  0      -76.0177431524    -0.0000001133   0.000099113   0.000072537          14603          0
   3  2  0      -76.0177431713    -0.0000000188   0.000013756   0.000014724          14603          0
   4  3  0      -76.0177431723    -0.0000000010   0.000007799   0.000003029          14603          0

          -----------------
          DENSITY CONVERGED
          -----------------
     TIME TO FORM FOCK OPERATORS=       0.0 SECONDS (       0.0 SEC/ITER)
     FOCK TIME ON FIRST ITERATION=       0.0, LAST ITERATION=       0.0
     TIME TO SOLVE SCF EQUATIONS=       0.0 SECONDS (       0.0 SEC/ITER)

 FINAL RHF ENERGY IS      -76.0177431723 AFTER   4 ITERATIONS
 ...... END OF RHF CALCULATION ......
 STEP CPU TIME =     0.03 TOTAL CPU TIME =        0.3 (    0.0 MIN)
 TOTAL WALL CLOCK TIME=        2.5 SECONDS, CPU UTILIZATION IS  13.36%
 ..... END OF 1-ELECTRON GRADIENT ......
 STEP CPU TIME =     0.00 TOTAL CPU TIME =        0.3 (    0.0 MIN)
 TOTAL WALL CLOCK TIME=        2.5 SECONDS, CPU UTILIZATION IS  13.04%
 ...... END OF 2-ELECTRON GRADIENT ......
 STEP CPU TIME =     0.01 TOTAL CPU TIME =        0.3 (    0.0 MIN)
 TOTAL WALL CLOCK TIME=        2.6 SECONDS, CPU UTILIZATION IS  13.28%

          NSERCH=  5     ENERGY=     -76.0177432

                                 -----------------------
                                 GRADIENT (HARTREE/BOHR)
                                 -----------------------
        ATOM     ZNUC       DE/DX         DE/DY         DE/DZ
 --------------------------------------------------------------
  1  OXYGEN       8.0     0.0000000     0.0000010     0.0000000
  2  HYDROGEN     1.0    -0.0000023    -0.0000005     0.0000000
  3  HYDROGEN     1.0     0.0000023    -0.0000005     0.0000000

          MAXIMUM GRADIENT =  0.0000023    RMS GRADIENT = 0.0000012

      ***** EQUILIBRIUM GEOMETRY LOCATED *****
 COORDINATES OF ALL ATOMS ARE (ANGS)
   ATOM   CHARGE       X              Y              Z
 ------------------------------------------------------------
 OXYGEN      8.0   0.0000000638  -0.1056358317   0.0000000000
 HYDROGEN    1.0  -0.7593796361   0.4611833128   0.0000000000
 HYDROGEN    1.0   0.7593804987   0.4611823503   0.0000000000

          INTERNUCLEAR DISTANCES (ANGS.)
          ------------------------------

                1 OXYG       2 HYDR       3 HYDR  

   1 OXYG    0.0000000    0.9475977 *  0.9475978 *
   2 HYDR    0.9475977 *  0.0000000    1.5187601 *
   3 HYDR    0.9475978 *  1.5187601 *  0.0000000  

  * ... LESS THAN  3.000


          NUCLEAR ENERGY    =        9.2834800611
          ELECTRONIC ENERGY =      -85.3012232334
          TOTAL ENERGY      =      -76.0177431723

          ------------------
          MOLECULAR ORBITALS
          ------------------

                      1          2          3          4          5
                  -20.5782    -1.3609    -0.7318    -0.5828    -0.5094
                     A          A          A          A          A   
    1  O  1  S    0.994563   0.209514   0.000000  -0.069064   0.000000
    2  O  1  S    0.021026  -0.479550   0.000000   0.169974   0.000000
    3  O  1  X    0.000000   0.000000  -0.513630   0.000000   0.000000
    4  O  1  Y    0.001373  -0.093951   0.000000  -0.562817   0.000000
    5  O  1  Z    0.000000   0.000000   0.000000   0.000000   0.638523
    6  O  1  S    0.004987  -0.434272   0.000000   0.264843   0.000000
    7  O  1  X    0.000000   0.000000  -0.304169   0.000000   0.000000
    8  O  1  Y   -0.000768  -0.058278   0.000000  -0.381827   0.000000
    9  O  1  Z    0.000000   0.000000   0.000000   0.000000   0.466069
   10  O  1  S   -0.000574  -0.056993   0.000000   0.018106   0.000000
   11  O  1  X    0.000000   0.000000  -0.005111   0.000000   0.000000
   12  O  1  Y    0.000335  -0.015211   0.000000  -0.055264   0.000000
   13  O  1  Z    0.000000   0.000000   0.000000   0.000000   0.081890
   14  O  1 XX   -0.004405  -0.029166   0.000000   0.007696   0.000000
   15  O  1 YY   -0.004281  -0.022058   0.000000  -0.038723   0.000000
   16  O  1 ZZ   -0.004143   0.000657   0.000000   0.018218   0.000000
   17  O  1 XY    0.000000   0.000000  -0.050659   0.000000   0.000000
   18  O  1 XZ    0.000000   0.000000   0.000000   0.000000   0.000000
   19  O  1 YZ    0.000000   0.000000   0.000000   0.000000   0.033424
   20  H  2  S    0.000332  -0.135016   0.232449  -0.140171   0.000000
   21  H  2  S   -0.000108   0.034931   0.095371  -0.063533   0.000000
   22  H  3  S    0.000332  -0.135016  -0.232449  -0.140171   0.000000
   23  H  3  S   -0.000108   0.034931  -0.095371  -0.063533   0.000000

                      6          7          8          9         10
                    0.1466     0.2190     0.2508     0.2525     0.3595
                     A          A          A          A          A   
    1  O  1  S    0.080137   0.000000   0.064318   0.000000   0.000000
    2  O  1  S   -0.048643   0.000000  -0.018632   0.000000   0.000000
    3  O  1  X    0.000000   0.182664   0.000000   0.000000   0.272420
    4  O  1  Y   -0.155940   0.000000   0.124629   0.000000   0.000000
    5  O  1  Z    0.000000   0.000000   0.000000  -0.207614   0.000000
    6  O  1  S   -0.943855   0.000000  -0.882285   0.000000   0.000000
    7  O  1  X    0.000000   0.433214   0.000000   0.000000   0.784591
    8  O  1  Y   -0.189650   0.000000   0.322748   0.000000   0.000000
    9  O  1  Z    0.000000   0.000000   0.000000  -0.517095   0.000000
   10  O  1  S    1.866015   0.000000   0.116479   0.000000   0.000000
   11  O  1  X    0.000000  -1.440984  -0.000001   0.000000   1.212261
   12  O  1  Y    0.718937   0.000001  -1.333704   0.000000  -0.000001
   13  O  1  Z    0.000000   0.000000   0.000000   1.234363   0.000000
   14  O  1 XX    0.045994   0.000000   0.057917   0.000000   0.000000
   15  O  1 YY    0.043372   0.000000   0.059329   0.000000   0.000000
   16  O  1 ZZ    0.059565   0.000000   0.048048   0.000000   0.000000
   17  O  1 XY    0.000000   0.029072   0.000000   0.000000  -0.001146
   18  O  1 XZ    0.000000   0.000000   0.000000   0.000000   0.000000
   19  O  1 YZ    0.000000   0.000000   0.000000  -0.007821   0.000000
   20  H  2  S    0.050566   0.015954   0.022670   0.000000   0.107584
   21  H  2  S   -0.367790  -0.331227   0.531129   0.000000   2.093367
   22  H  3  S    0.050566  -0.015954   0.022670   0.000000  -0.107584
   23  H  3  S   -0.367789   0.331227   0.531129   0.000000  -2.093368

                     11         12         13         14         15
                    0.3876     1.2478     1.3477     1.3898     1.4046
                     A          A          A          A          A   
    1  O  1  S    0.061497   0.000000  -0.009780   0.000000   0.000000
    2  O  1  S   -0.037004   0.000000  -1.113214   0.000000   0.000000
    3  O  1  X    0.000000  -0.346420   0.000000   0.984959   0.000000
    4  O  1  Y   -0.218910   0.000000  -0.436257  -0.000001   0.000000
    5  O  1  Z    0.000000   0.000000   0.000000   0.000000   0.991750
    6  O  1  S   -1.132781   0.000000   2.549851   0.000000   0.000000
    7  O  1  X    0.000000  -0.180677   0.000000  -1.664970   0.000000
    8  O  1  Y   -0.721512   0.000000   0.409949   0.000001   0.000000
    9  O  1  Z    0.000000   0.000000   0.000000   0.000000  -1.429273
   10  O  1  S   -3.197399   0.000000   1.453550   0.000000   0.000000
   11  O  1  X   -0.000001   0.963348   0.000000   0.435519   0.000000
   12  O  1  Y   -0.999250  -0.000001   0.727144   0.000000   0.000000
   13  O  1  Z    0.000000   0.000000   0.000000   0.000000   0.647131
   14  O  1 XX    0.046758   0.000000  -0.157008   0.000000   0.000000
   15  O  1 YY    0.008200   0.000000  -0.319522   0.000000   0.000000
   16  O  1 ZZ    0.023302   0.000000  -0.432090   0.000000   0.000000
   17  O  1 XY    0.000000   0.271278   0.000000   0.072860   0.000000
   18  O  1 XZ    0.000000   0.000000   0.000000   0.000000   0.000000
   19  O  1 YZ    0.000000   0.000000   0.000000   0.000000  -0.031081
   20  H  2  S    0.114696  -0.869364   0.703186  -0.152651   0.000000
   21  H  2  S    2.576596   1.599100  -1.984113  -0.361606   0.000000
   22  H  3  S    0.114696   0.869364   0.703186   0.152651   0.000000
   23  H  3  S    2.576596  -1.599100  -1.984113   0.361606   0.000000

     ----------------------------------------------------------------
     PROPERTY VALUES FOR THE RHF   SELF-CONSISTENT FIELD WAVEFUNCTION
     ----------------------------------------------------------------

          -----------------
          ENERGY COMPONENTS
          -----------------

         WAVEFUNCTION NORMALIZATION =       1.0000000000

                ONE ELECTRON ENERGY =    -123.0759472681
                TWO ELECTRON ENERGY =      37.7747240346
           NUCLEAR REPULSION ENERGY =       9.2834800611
                                      ------------------
                       TOTAL ENERGY =     -76.0177431723

 ELECTRON-ELECTRON POTENTIAL ENERGY =      37.7747240346
  NUCLEUS-ELECTRON POTENTIAL ENERGY =    -198.8679012767
   NUCLEUS-NUCLEUS POTENTIAL ENERGY =       9.2834800611
                                      ------------------
             TOTAL POTENTIAL ENERGY =    -151.8096971809
               TOTAL KINETIC ENERGY =      75.7919540086
                 VIRIAL RATIO (V/T) =       2.0029790651

  ...... PI ENERGY ANALYSIS ......

 ENERGY ANALYSIS:
            FOCK ENERGY=    -47.5265134834
          BARE H ENERGY=   -123.0759472681
     ELECTRONIC ENERGY =    -85.3012303757
         KINETIC ENERGY=     75.7919540086
          N-N REPULSION=      9.2834800611
           TOTAL ENERGY=    -76.0177503146
        SIGMA PART(1+2)=    -77.7686840967
               (K,V1,2)=     71.3243797368   -180.3541215056     31.2610576721
           PI PART(1+2)=     -7.5325462791
               (K,V1,2)=      4.4675742718    -18.5137797711      6.5136592202
  SIGMA SKELETON, ERROR=    -68.4852040356      0.0000000000
             MIXED PART= 0.00000E+00 0.00000E+00 0.00000E+00 0.00000E+00
 ...... END OF PI ENERGY ANALYSIS ......

          ---------------------------------------
          MULLIKEN AND LOWDIN POPULATION ANALYSES
          ---------------------------------------

     MULLIKEN ATOMIC POPULATION IN EACH MOLECULAR ORBITAL

                      1          2          3          4          5

                  2.000000   2.000000   2.000000   2.000000   2.000000

    1             1.999979   1.821177   1.368641   1.800169   2.000000
    2             0.000010   0.089411   0.315679   0.099916   0.000000
    3             0.000010   0.089411   0.315679   0.099916   0.000000

               ----- POPULATIONS IN EACH AO -----
                             MULLIKEN      LOWDIN
              1  O  1  S      1.99515     1.97753
              2  O  1  S      0.91125     0.70874
              3  O  1  X      0.82080     0.76003
              4  O  1  Y      0.95899     0.91018
              5  O  1  Z      1.13150     1.09839
              6  O  1  S      0.89109     0.43603
              7  O  1  X      0.52111     0.53598
              8  O  1  Y      0.66039     0.65233
              9  O  1  Z      0.78411     0.75417
             10  O  1  S      0.07685     0.09724
             11  O  1  X      0.00514     0.08263
             12  O  1  Y      0.05873     0.12504
             13  O  1  Z      0.08216     0.14520
             14  O  1 XX      0.04245     0.19757
             15  O  1 YY      0.02057     0.17138
             16  O  1 ZZ      0.00587     0.15899
             17  O  1 XY      0.02159     0.02783
             18  O  1 XZ      0.00000     0.00000
             19  O  1 YZ      0.00223     0.00223
             20  H  2  S      0.46767     0.41794
             21  H  2  S      0.03735     0.16131
             22  H  3  S      0.46767     0.41794
             23  H  3  S      0.03735     0.16131

          ----- MULLIKEN ATOMIC OVERLAP POPULATIONS -----
          (OFF-DIAGONAL ELEMENTS NEED TO BE MULTIPLIED BY 2)

             1           2           3

    1    8.5004815
    2    0.2447426   0.2819288
    3    0.2447426  -0.0216548   0.2819288

          TOTAL MULLIKEN AND LOWDIN ATOMIC POPULATIONS
       ATOM         MULL.POP.    CHARGE          LOW.POP.     CHARGE
    1 OXYGEN        8.989967   -0.989967         8.841497   -0.841497
    2 HYDROGEN      0.505017    0.494983         0.579251    0.420749
    3 HYDROGEN      0.505017    0.494983         0.579251    0.420749

          -------------------------------
          BOND ORDER AND VALENCE ANALYSIS     BOND ORDER THRESHOLD=0.050
          -------------------------------

                   BOND                       BOND                       BOND
  ATOM PAIR DIST  ORDER      ATOM PAIR DIST  ORDER      ATOM PAIR DIST  ORDER
    1   2  0.948  0.715        1   3  0.948  0.715

                       TOTAL       BONDED        FREE
      ATOM            VALENCE     VALENCE     VALENCE
    1 OXYGEN            1.430       1.430       0.000
    2 HYDROGEN          0.713       0.713       0.000
    3 HYDROGEN          0.713       0.713       0.000

          ---------------------
          ELECTROSTATIC MOMENTS
          ---------------------

 POINT   1           X           Y           Z (BOHR)    CHARGE
                 0.000000   -0.079747    0.000000        0.00 (A.U.)
         DX          DY          DZ         /D/  (DEBYE)
     0.000001    2.285109    0.000000    2.285109
 ...... END OF PROPERTY EVALUATION ......
 STEP CPU TIME =     0.00 TOTAL CPU TIME =        0.3 (    0.0 MIN)
 TOTAL WALL CLOCK TIME=        2.6 SECONDS, CPU UTILIZATION IS  13.13%
  $VIB   
          IVIB=   0 IATOM=   0 ICOORD=   0 E=      -76.0177431723
 -1.563324206E-08 1.013143590E-06 0.000000000E+00-2.274404372E-06-5.120750346E-07
  0.000000000E+00 2.290037613E-06-5.010682838E-07 0.000000000E+00
  1.489791141E-06 2.285108798E+00-2.182436637E-17
 ......END OF GEOMETRY SEARCH......
 STEP CPU TIME =     0.00 TOTAL CPU TIME =        0.3 (    0.0 MIN)
 TOTAL WALL CLOCK TIME=        2.7 SECONDS, CPU UTILIZATION IS  12.55%


     *********************************************************
     THE HESSIAN WILL NOW BE COMPUTED AT THE STATIONARY POINT.
     *********************************************************

     ---------------------------------
     HESSIAN MATRIX CONTROL PARAMETERS
     ---------------------------------
     METHOD=ANALYTIC   NVIB  =       1   VIBSIZ= 0.01000
     RDHESS=       F   PURIFY=       F   PRTIFC=       F
     VIBANL=       F   DECOMP=       F   PROJCT=       F
     SCLFAC= 1.00000   PRTSCN=       F   NPRT  =       0
     PULCOR=       F   NPUN  =       0   REDOVB=       T

     ------------------------------
     CPHF RESPONSE SOLUTION OPTIONS
     ------------------------------
     POLAR  =       F     NWORD  =       0
     CPHF   =AO      

     ---------------------------------------------
     1ST AND 2ND INTEGRAL DERIVATIVE CONTRIBUTIONS
     ---------------------------------------------
 ...... END OF 1-ELECTRON GRAD+HESS+FOCKDER ......
 STEP CPU TIME =     0.02 TOTAL CPU TIME =        0.4 (    0.0 MIN)
 TOTAL WALL CLOCK TIME=        2.8 SECONDS, CPU UTILIZATION IS  13.09%

     ----------------------------------------------
     TWO ELECTRON INTEGRAL DERIVATIVE CONTRIBUTIONS
     ----------------------------------------------

      12195 WORDS REQUIRED,  96000000 WORDS AVAILABLE
 THE COARSE/FINE SCHWARZ SCREENINGS SKIPPED          0/         0 BLOCKS.
 THE NUMBER OF DERIVATIVE INTEGRAL BLOCKS COMPUTED WAS       903
 STEP CPU TIME =     0.10 TOTAL CPU TIME =        0.5 (    0.0 MIN)
 TOTAL WALL CLOCK TIME=        2.9 SECONDS, CPU UTILIZATION IS  15.70%
 ...... END OF 2-ELECTRON GRAD+HESS+FOCKDER ......
 STEP CPU TIME =     0.00 TOTAL CPU TIME =        0.5 (    0.0 MIN)
 TOTAL WALL CLOCK TIME=        2.9 SECONDS, CPU UTILIZATION IS  15.59%

     -------------------------------------------
     COUPLED-PERTURBED CLOSED SHELL HARTREE-FOCK
     -------------------------------------------
 THE CPHF HAS      90 INDEPENDENT ORBITAL ROTATIONS.
 SOLVING FOR    9 NUCLEAR RESPONSES AND 0 ELECTRIC FIELD RESPONSES
           -FA- WILL USE      2265 WORDS,
           -TA- WILL USE      7241 WORDS,
          -FCK- WILL USE     83478 WORDS,
 -WXY- AND -YA- WILL USE     56314 WORDS,
               THERE ARE  96000000 WORDS OF REPLICATED MEMORY AVAILABLE.
        TIME FOR -FA-   =        0.000
        TIME FOR -TA-   =        0.000
        TIME FOR -FCK-  =        0.010
 PRECONDITIONED CONJUGATE GRADIENT SOLVER     CONV. TOLERANCE=5.00E-05
             MAXIMUM          RESPONSES        NONZERO     BLOCKS
 ITER    RESPONSE ERROR        IMPROVED   AO INTEGRALS    SKIPPED
   1       4.46630E-01             9             14600          0
   2       1.34138E-01             9             14600          0
   3       2.44639E-02             9             14600          0
   4       5.18637E-03             9             14600          0
   5       9.47358E-04             9             14600          0
   6       1.33170E-04             9             14600          0
   7       2.01156E-05             5             14600          0
 THE CPHF HAS CONVERGED AFTER  7 ITERATIONS.
 IT REQUIRED    59 FOCK-LIKE BUILDS TO FIND THE   9 SYMMETRY UNIQUE RESPONSES.
        TIME FOR -YA-   =        0.050
 ...... DONE WITH CPHF CONTRIBUTIONS ......
 STEP CPU TIME =     0.06 TOTAL CPU TIME =        0.5 (    0.0 MIN)
 TOTAL WALL CLOCK TIME=        3.3 SECONDS, CPU UTILIZATION IS  15.90%

          ---------------
          ENERGY GRADIENT
          ---------------

 UNITS ARE HARTREE/BOHR    E'X               E'Y               E'Z 
    1 OXYGEN          -0.000000016       0.000000980       0.000000000
    2 HYDROGEN        -0.000002301      -0.000000496       0.000000000
    3 HYDROGEN         0.000002317      -0.000000485       0.000000000

          -------------------------------
          CARTESIAN FORCE CONSTANT MATRIX
          -------------------------------

                                   1                          2
                               OXYGEN                     HYDROGEN  
                          X        Y        Z        X        Y        Z
  1   OXYGEN       X 0.795700 0.000000 0.000000-0.397850 0.296964 0.000000
                   Y 0.000000 0.526061 0.000000 0.227226-0.263031 0.000000
                   Z 0.000000 0.000000 0.000001 0.000000 0.000000-0.000001
  2   HYDROGEN     X-0.397850 0.227226 0.000000 0.428446-0.262095 0.000000
                   Y 0.296964-0.263031 0.000000-0.262095 0.242347 0.000000
                   Z 0.000000 0.000000-0.000001 0.000000 0.000000 0.000001
  3   HYDROGEN     X-0.397850-0.227226 0.000000-0.030597-0.034869 0.000000
                   Y-0.296964-0.263031 0.000000 0.034869 0.020685 0.000000
                   Z 0.000000 0.000000-0.000001 0.000000 0.000000 0.000000

                                   3
                               HYDROGEN  
                          X        Y        Z
  3   HYDROGEN     X 0.428447 0.262095 0.000000
                   Y 0.262095 0.242346 0.000000
                   Z 0.000000 0.000000 0.000001

          ------------------------          ----------------
          DIPOLE DERIVATIVE TENSOR          (DEBYE/ANGSTROM)
          ------------------------          ----------------

        ATOM                 MU-X           MU-Y           MU-Z
     OXYGEN     D/DX    -2.906622107    0.000000060    0.000000000
                D/DY     0.000000325   -2.406674371    0.000000000
                D/DZ     0.000000000    0.000000000   -4.031404187
     HYDROGEN   D/DX     1.453266262    0.266536619    0.000000000
                D/DY     0.419833177    1.203373613    0.000000000
                D/DZ     0.000000000    0.000000000    2.015721411
     HYDROGEN   D/DX     1.453265422   -0.266536912    0.000000000
                D/DY    -0.419833502    1.203374508    0.000000000
                D/DZ     0.000000000    0.000000000    2.015721404

          --------------------------------------------------------
          NORMAL COORDINATE ANALYSIS IN THE HARMONIC APPROXIMATION
          --------------------------------------------------------

          ATOMIC WEIGHTS (AMU)

    1     OXYGEN           15.99491
    2     HYDROGEN          1.00782
    3     HYDROGEN          1.00782

 MODES 1 TO 6 ARE TAKEN AS ROTATIONS AND TRANSLATIONS.

     FREQUENCIES IN CM**-1, IR INTENSITIES IN DEBYE**2/AMU-ANGSTROM**2,
     REDUCED MASSES IN AMU.

                          1           2           3           4           5
       FREQUENCY:         0.67        0.50        0.00        5.35        5.93  
    REDUCED MASS:      8.72254     7.03522     6.00353     1.01810     1.00784
    IR INTENSITY:      0.09424     0.02612     0.00000     2.97926     0.00323

  1   OXYGEN       X  0.00000000  0.23909331  0.00000022  0.02595051  0.00000000
                   Y  0.00000000 -0.00000022  0.23563319 -0.00000001  0.00000000
                   Z  0.24292928  0.00000000  0.00000000  0.00000000 -0.00101975
  2   HYDROGEN     X  0.00000000  0.19900760  0.00000009 -0.40219585  0.00000000
                   Y  0.00000000 -0.05370397  0.23563282 -0.57359612  0.00000000
                   Z  0.16647117  0.00000000  0.00000000  0.00000000  0.71731700
  3   HYDROGEN     X  0.00000000  0.19900767  0.00000034 -0.40219509  0.00000000
                   Y  0.00000000  0.05370358  0.23563282  0.57359660  0.00000000
                   Z  0.16708753  0.00000000  0.00000000  0.00000000 -0.69114078

 TRANS. SAYVETZ    X  0.00000000  4.22540569  0.00000395 -0.39560930  0.00000000
                   Y  0.00000000 -0.00000394  4.24388501  0.00000035  0.00000000
                   Z  4.22180080  0.00000000  0.00000000  0.00000000  0.01007029
               TOTAL  4.22180080  4.22540569  4.24388501  0.39560930  0.01007029

   ROT. SAYVETZ    X -0.14600987  0.00000000  0.00000000  0.00000000  0.02705170
                   Y -0.00089131  0.00000000  0.00000000  0.00000000  2.03698103
                   Z  0.00000000  0.23219836  0.00000001  2.48005366  0.00000000
               TOTAL  0.14601259  0.23219836  0.00000001  2.48005366  2.03716065

                          6           7           8           9
       FREQUENCY:         6.57     1796.64     4071.06     4190.20  
    REDUCED MASS:      1.06369     1.08276     1.04509     1.08386
    IR INTENSITY:      8.98178     2.82346     0.55337     2.06377

  1   OXYGEN       X  0.00000000 -0.00000004 -0.00000009 -0.06841674
                   Y  0.00000000 -0.06795474 -0.04877541  0.00000008
                   Z -0.05919639  0.00000000  0.00000000  0.00000000
  2   HYDROGEN     X  0.00000000  0.41071540 -0.57221520  0.54291146
                   Y  0.00000000  0.53924616  0.38705085 -0.40524256
                   Z  0.67080506  0.00000000  0.00000000  0.00000000
  3   HYDROGEN     X  0.00000000 -0.41071474  0.57221655  0.54291108
                   Y  0.00000000  0.53924673  0.38705075  0.40524125
                   Z  0.69759726  0.00000000  0.00000000  0.00000000

 TRANS. SAYVETZ    X  0.00000000 -0.00000001 -0.00000002 -0.00000049
                   Y  0.00000000  0.00000217  0.00000062  0.00000000
                   Z  0.43226907  0.00000000  0.00000000  0.00000000
               TOTAL  0.43226907  0.00000217  0.00000062  0.00000049

   ROT. SAYVETZ    X  1.42539032  0.00000000  0.00000000  0.00000000
                   Y -0.03874913  0.00000000  0.00000000  0.00000000
                   Z  0.00000000  0.00000012  0.00000000  0.00000141
               TOTAL  1.42591692  0.00000012  0.00000000  0.00000141

 REFERENCE ON SAYVETZ CONDITIONS - A. SAYVETZ, J.CHEM.PHYS., 7, 383-389(1939).

 NOTE - THE MODES J,K ARE ORTHONORMALIZED ACCORDING TO
 SUM ON I   M(I) * (X(I,J)*X(I,K) + Y(I,J)*Y(I,K) + Z(I,J)*Z(I,K)) = DELTA(J,K)

     -------------------------------
     THERMOCHEMISTRY AT T=  298.15 K
     -------------------------------

 USING IDEAL GAS, RIGID ROTOR, HARMONIC NORMAL MODE APPROXIMATIONS.
 P=  1.01325E+05 PASCAL.
 ALL FREQUENCIES ARE SCALED BY   1.00000
 THE MOMENTS OF INERTIA ARE (IN AMU*BOHR**2)
      2.05379     4.15079     6.20458
 THE ROTATIONAL SYMMETRY NUMBER IS  1.0
 THE ROTATIONAL CONSTANTS ARE (IN GHZ)
    877.93289   434.39598   290.60591
 THE HARMONIC ZERO POINT ENERGY IS (SCALED BY   1.000)
        0.022914 HARTREE/MOLECULE     5028.952891 CM**-1/MOLECULE 
       14.378512 KCAL/MOL               60.159695 KJ/MOL

               Q               LN Q
 ELEC.     1.00000E+00       0.000000
 TRANS.    3.00431E+06      14.915558
 ROT.      8.23268E+01       4.410696
 VIB.      1.00017E+00       0.000172
 TOT.      2.47378E+08      19.326426

              E         H         G         CV        CP        S
           KJ/MOL    KJ/MOL    KJ/MOL   J/MOL-K   J/MOL-K   J/MOL-K
 ELEC.      0.000     0.000     0.000     0.000     0.000     0.000
 TRANS.     3.718     6.197   -36.975    12.472    20.786   144.800
 ROT.       3.718     3.718   -10.934    12.472    12.472    49.144
 VIB.      60.163    60.163    60.159     0.107     0.107     0.014
 TOTAL     67.600    70.079    12.251    25.051    33.365   193.958
 E(T)-E(0) = H(T)-H(0) =     3.690

              E         H         G         CV        CP        S
         KCAL/MOL  KCAL/MOL  KCAL/MOL CAL/MOL-K CAL/MOL-K CAL/MOL-K
 ELEC.      0.000     0.000     0.000     0.000     0.000     0.000
 TRANS.     0.889     1.481    -8.837     2.981     4.968    34.608
 ROT.       0.889     0.889    -2.613     2.981     2.981    11.746
 VIB.      14.379    14.379    14.378     0.026     0.026     0.003
 TOTAL     16.157    16.749     2.928     5.987     7.974    46.357
 E(T)-E(0) = H(T)-H(0) =     0.882
 ......END OF NORMAL COORDINATE ANALYSIS......
 STEP CPU TIME =     0.00 TOTAL CPU TIME =        0.5 (    0.0 MIN)
 TOTAL WALL CLOCK TIME=        3.3 SECONDS, CPU UTILIZATION IS  15.81%
               1046928  WORDS OF DYNAMIC MEMORY USED
 EXECUTION OF GAMESS TERMINATED NORMALLY Tue Sep 28 10:45:27 2010
 DDI: 263016 bytes (0.3 MB / 0 MWords) used by master data server.

 ----------------------------------------
 CPU timing information for all processes
 ========================================
 0: 0.496031 + 0.032002 = 0.528033
 ----------------------------------------
 ddikick.x: exited gracefully.
