18
timestep          1
C -0.75956571  0.93014846 -1.01204038
H -1.07342318  1.29666546 -1.97824883
C  0.17494145 -0.08292245 -0.85334264
C  0.86568132 -0.64772320 -2.06097434
C  0.52125724 -0.56196115  0.45213732
C  1.61328524 -1.59441658  0.60628416
C -0.14684396 -0.06950001  1.57237045
H  0.12321660 -0.44723911  2.54745018
C -1.15353117  0.91002236  1.39345024
H -1.70685094  1.18374854  2.27962811
C -1.46295475  1.41234183  0.11181593
H -2.16340885  2.22993060  0.02630184
H  0.73605674 -0.02309360 -2.94479294
H  1.94226056 -0.70685640 -1.90103562
H  0.55623109 -1.66085259 -2.31770261
H  1.32549896 -2.47007763  0.02447940
H  2.49501741 -1.17473488  0.12201600
H  1.90884317 -1.75440189  1.64317866
18
timestep          3
C -0.74540639  0.93324890 -1.01723617
H -1.07482440  1.30776963 -1.97515996
C  0.17318273 -0.08803231 -0.83308440
C  0.85378390 -0.65921941 -2.06530505
C  0.53332041 -0.54188832  0.44930751
C  1.60966146 -1.58446786  0.59635228
C -0.14756897 -0.06923077  1.58321618
H  0.10264851 -0.47623835  2.55179041
C -1.16518449  0.89701838  1.38706073
H -1.68205195  1.17983743  2.29219133
C -1.46539433  1.41157768  0.10768319
H -2.12471961  2.26428895  0.04005430
H  0.75914641 -0.00549809 -2.93236456
H  1.92987927 -0.71580875 -1.90124280
H  0.55295413 -1.67185443 -2.33395308
H  1.35178781 -2.47496838  0.02310712
H  2.51050066 -1.19136810  0.12511846
H  1.88812924 -1.77902151  1.63206681
18
timestep          5
C -0.73717868  0.93857429 -1.01958029
H -1.05866854  1.31709948 -1.97862301
C  0.17431349 -0.09487416 -0.81579811
C  0.84371455 -0.67036770 -2.07059415
C  0.54481116 -0.52247506  0.44699395
C  1.60762378 -1.57411560  0.58582321
C -0.14902259 -0.06835239  1.59194888
H  0.07539418 -0.49715458  2.55743619
C -1.17601405  0.88212795  1.38341664
H -1.66305956  1.19346842  2.29569609
C -1.46520244  1.41174850  0.10415194
H -2.09730923  2.28545693  0.04520650
H  0.77380122  0.00973417 -2.91951909
H  1.91963724 -0.72190239 -1.90375716
H  0.53813442 -1.67979056 -2.34588720
H  1.37658715 -2.48676860  0.03647217
H  2.53027622 -1.20901479  0.13469810
H  1.85856388 -1.81282946  1.61933409
18
timestep          7
C -0.73470549  0.94541617 -1.01810054
H -1.02415229  1.32348422 -1.98747406
C  0.17751575 -0.10183076 -0.80637168
C  0.83551423 -0.68049456 -2.07518386
C  0.55557358 -0.50498713  0.44869020
C  1.60813420 -1.56494483  0.57550208
C -0.15095579 -0.06751133  1.59703122
H  0.04509536 -0.50704700  2.56386742
C -1.18588184  0.86640288  1.38277090
H -1.65447827  1.22108612  2.28887088
C -1.46189411  1.41274864  0.10143890
H -2.08392718  2.29353219  0.04065103
H  0.77720905  0.01979823 -2.90842481
H  1.91159821 -0.72866018 -1.90838034
H  0.51226024 -1.68316110 -2.35494557
H  1.39295466 -2.49924401  0.05696300
H  2.55220752 -1.22398130  0.15056743
H  1.82154761 -1.84769379  1.60633073
18
timestep          9
C -0.73626744  0.95210731 -1.01322390
H -0.97538142  1.32760688 -1.99720781
C  0.18136120 -0.10693993 -0.80715104
C  0.82915697 -0.68911670 -2.07800309
C  0.56571390 -0.49058152  0.45569920
C  1.61175198 -1.55824958  0.56646214
C -0.15330293 -0.06718705  1.59806952
H  0.01657536 -0.50518164  2.57054158
C -1.19504708  0.85155148  1.38443559
H -1.65815001  1.25552185  2.27254795
C -1.45578717  1.41450846  0.10040494
H -2.08476635  2.28940720  0.02734802
H  0.76810688  0.02269991 -2.90122235
H  1.90576408 -0.73973671 -1.91535351
H  0.47749959 -1.68091989 -2.36219205
H  1.39563874 -2.50709430  0.07545425
H  2.57446366 -1.23353220  0.17169028
H  1.77957842 -1.87606947  1.59550286
18
timestep         11
C -0.73928138  0.95667288 -1.00646401
H -0.92084445  1.33214954 -2.00268274
C  0.18449681 -0.10857317 -0.81713858
C  0.82457594 -0.69601083 -2.07890718
C  0.57543612 -0.48007078  0.46648807
C  1.61839364 -1.55474218  0.55986261
C -0.15627582 -0.06754799  1.59591084
H -0.00518067 -0.49303362  2.57699801
C -1.20391622  0.83949249  1.38702520
H -1.67366286  1.28776591  2.25003677
C -1.44784591  1.41697404  0.10215934
H -2.09768486  2.27444863  0.00810317
H  0.74725410  0.01759601 -2.89920380
H  1.90189589 -0.75789050 -1.92511248
H  0.43689096 -1.67294463 -2.36769852
H  1.38302251 -2.50670127  0.08396944
H  2.59569628 -1.23675074  0.19673598
H  1.73657184 -1.89315294  1.58923725
18
timestep         13
C -0.74124795  0.95764610 -0.99968585
H -0.87140391  1.34085551 -2.00098981
C  0.18629390 -0.10602251 -0.83243081
C  0.82159713 -0.70120281 -2.07863909
C  0.58481763 -0.47373739  0.47725634
C  1.62727445 -1.55449995  0.55672621
C -0.16026449 -0.06845373  1.59221150
H -0.01619560 -0.47366925  2.58289025
C -1.21278741  0.83181645  1.38900570
H -1.69930098  1.30926285  2.22671055
C -1.43932957  1.42002837  0.10740092
H -2.11888475  2.25077079 -0.01289702
H  0.71770678  0.00488678 -2.90249845
H  1.89930043 -0.78423460 -1.93806358
H  0.39374782 -1.66032478 -2.37040901
H  1.35811344 -2.49590619  0.07776218
H  2.61495145 -1.23490722  0.22437931
H  1.69758626 -1.89786047  1.58884055
18
timestep         15
C -0.74062595  0.95474449 -0.99436602
H -0.83718224  1.35651453 -1.99219242
C  0.18719473 -0.09977297 -0.84772229
C  0.81983564 -0.70489318 -2.07844452
C  0.59361885 -0.47127659  0.48349041
C  1.63709035 -1.55704456  0.55773941
C -0.16557493 -0.06957045  1.58867383
H -0.01454717 -0.45080226  2.58779988
C -1.22170144  0.82934708  1.38937613
H -1.73275670  1.31376894  2.20825216
C -1.43139083  1.42342224  0.11583389
H -2.14394966  2.22162815 -0.03088687
H  0.68453897 -0.01382364 -2.91044073
H  1.89683090 -0.81799679 -1.95439280
H  0.35130131 -1.64532715 -2.36854654
H  1.32796819 -2.47405662  0.05611001
H  2.63154971 -1.23092267  0.25311705
H  1.66777438 -1.89273965  1.59430471
18
timestep         17
C -0.73728080  0.94910384 -0.99113875
H -0.82469186  1.37889558 -1.97807255
C  0.18861404 -0.09133814 -0.85827456
C  0.81865093 -0.70735519 -2.07954221
C  0.60121347 -0.47190972  0.48187622
C  1.64639366 -1.56147862  0.56310602
C -0.17212609 -0.07051815  1.58628058
H -0.00100002 -0.42797864  2.59093863
C -1.23042792  0.83193154  1.38817483
H -1.77130485  1.29830328  2.19832881
C -1.42479168  1.42678608  0.12597918
H -2.16897091  2.19131811 -0.04161504
H  0.65378365 -0.03591553 -2.92220919
H  1.89317204 -0.85682903 -1.97389266
H  0.31244384 -1.63094123 -2.36033202
H  1.30163534 -2.44267096  0.02205042
H  2.64504519 -1.22804524  0.28094136
H  1.65082023 -1.88305805  1.60457974
18
timestep         19
C -0.73233854  0.94293465 -0.98969112
H -0.83538042  1.40393862 -1.96090564
C  0.19241691 -0.08268810 -0.86157673
C  0.81723136 -0.70885224 -2.08269902
C  0.60670160 -0.47464992  0.47179013
C  1.65400778 -1.56666281  0.57246559
C -0.17926937 -0.07097303  1.58483891
H  0.02099068 -0.40819251  2.59110862
C -1.23853642  0.83847322  1.38652478
H -1.81170261  1.26351940  2.19721338
C -1.41985959  1.42973705  0.13552502
H -2.19124386  2.16437608 -0.04244038
H  0.63088183 -0.05825522 -2.93715648
H  1.88726199 -0.89749631 -1.99582270
H  0.27946347 -1.62004214 -2.34468848
H  1.28741393 -2.40603703 -0.01843117
H  2.65520329 -1.22839779  0.30547521
H  1.64759927 -1.87532422  1.61783038
18
timestep         21
C -0.72753823  0.93872373 -0.98897572
H -0.86591768  1.42485186 -1.94340245
C  0.20016033 -0.07546783 -0.85807970
C  0.81479674 -0.70961422 -2.08805986
C  0.60920093 -0.47863697  0.45574447
C  1.65929604 -1.57141461  0.58490359
C -0.18585787 -0.07070309  1.58302654
H  0.04599490 -0.39386753  2.58712243
C -1.24547521  0.84717023  1.38613873
H -1.85035908  1.21380870  2.20228283
C -1.41668140  1.43202098  0.14211887
H -2.20923738  2.14445235 -0.03308565
H  0.61927874 -0.07800280 -2.95462778
H  1.87864430 -0.93663431 -2.01885195
H  0.25376977 -1.61445409 -2.32175497
H  1.29059111 -2.37101946 -0.05758207
H  2.66196212 -1.23214991  0.32478867
H  1.65582583 -1.87560747  1.63159123
18
timestep         23
C -0.72438451  0.93831794 -0.98770621
H -0.90977483  1.43452266 -1.92888154
C  0.21240460 -0.07032004 -0.85077766
C  0.81083270 -0.70987797 -2.09522450
C  0.60820773 -0.48341043  0.43857049
C  1.66218617 -1.57471924  0.59909883
C -0.19057980 -0.06956822  1.57895556
H  0.06794404 -0.38690826  2.57838540
C -1.25062633  0.85592969  1.38848991
H -1.88396787  1.15675861  2.20993965
C -1.41538223  1.43360484  0.14430194
H -2.22217928  2.13348258 -0.01585373
H  0.61963144 -0.09333965 -2.97353125
H  1.86763479 -0.97130432 -2.04114070
H  0.23567692 -1.61436865 -2.29319495
H  1.31253903 -2.34571150 -0.08749934
H  2.66542489 -1.23759930  0.33840381
H  1.67094071 -1.88803066  1.64306212
18
timestep         25
C -0.72348532  0.94229082 -0.98500128
H -0.95921520  1.42787302 -1.92043749
C  0.22839891 -0.06661275 -0.84385614
C  0.80525380 -0.70995137 -2.10345937
C  0.60385580 -0.48899451  0.42562210
C  1.66300137 -1.57598293  0.61360693
C -0.19242212 -0.06752144  1.57106677
H  0.08167831 -0.38863496  2.56512623
C -1.25338038  0.86288145  1.39404666
H -1.91012214  1.10155989  2.21752828
C -1.41628586  1.43466758  0.14219095
H -2.22988083  2.13150199  0.00476726
H  0.62978044 -0.10370389 -2.99215115
H  1.85527910 -0.99927505 -2.06058494
H  0.22431658 -1.61846404 -2.26225639
H  1.35123321 -2.33682251 -0.10195106
H  2.66587145 -1.24182523  0.34773095
H  1.68778660 -1.91363867  1.64969278
18
timestep         27
C -0.72436634  0.94983496 -0.98087800
H -1.00689727  1.40330392 -1.91946284
C  0.24628481 -0.06270677 -0.84096650
C  0.79842840 -0.71023599 -2.11193197
C  0.59694338 -0.49574300  0.42069291
C  1.66227143 -1.57530320  0.62718516
C -0.19104787 -0.06462383  1.55899497
H  0.08412056 -0.39963132  2.54816205
C -1.25328077  0.86683080  1.40193617
H -1.92731763  1.05678872  2.22412191
C -1.41984883  1.43549542  0.13756623
H -2.23297685  2.13701601  0.02314597
H  0.64545808 -0.10952733 -3.00850819
H  1.84309820 -1.01912706 -2.07517503
H  0.21776958 -1.62466153 -2.23342723
H  1.40231992 -2.34659779 -0.09781789
H  2.66370435 -1.24139623  0.35563743
H  1.70211029 -1.94977816  1.65006371
18
timestep         29
C -0.72580579  0.95915694 -0.97629097
H -1.04688834  1.36324464 -1.92498386
C  0.26371337 -0.05665822 -0.84381065
C  0.79105278 -0.71116427 -2.11991076
C  0.58872069 -0.50401282  0.42448772
C  1.66067404 -1.57356667  0.63904659
C -0.18691779 -0.06107296  1.54400660
H  0.07472245 -0.41957726  2.52859712
C -1.25020688  0.86749327  1.41018112
H -1.93439838  1.02851170  2.23015310
C -1.42641374  1.43633881  0.13324876
H -2.23312716  2.14752133  0.03408607
H  0.66153745 -0.11179245 -3.02106486
H  1.83265515 -1.03027273 -2.08338219
H  0.21350675 -1.63102006 -2.21159388
H  1.45972936 -2.37137843 -0.07594783
H  2.65930313 -1.23297909  0.36547746
H  1.71111137 -1.99036334  1.64494699
18
timestep         31
C -0.72648244  0.96817281 -0.97265681
H -1.07536765  1.31386109 -1.93451840
C  0.27859194 -0.04706805 -0.85158187
C  0.78392135 -0.71306539 -2.12689413
C  0.58054092 -0.51382557  0.43429270
C  1.65904829 -1.57216760  0.64898290
C -0.18111333 -0.05724345  1.52877101
H  0.05522998 -0.44709164  2.50783183
C -1.24449613  0.86545547  1.41639431
H -1.93008659  1.01935507  2.23656471
C -1.43592218  1.43730030  0.13196838
H -2.23269051  2.15983998  0.03451607
H  0.67343727 -0.11169611 -3.02925085
H  1.82507322 -1.03291900 -2.08450597
H  0.20910516 -1.63621842 -2.20088586
H  1.51608021 -2.40337043 -0.04149614
H  2.65284313 -1.21409803  0.38017438
H  1.71320513 -2.02737033  1.63789984
18
timestep         33
C -0.72563304  0.97523887 -0.97112330
H -1.09104232  1.26374398 -1.94561807
C  0.28966420 -0.03373870 -0.86145264
C  0.77768446 -0.71602067 -2.13262746
C  0.57351146 -0.52467827  0.44500547
C  1.65827902 -1.57242902  0.65731379
C -0.17494176 -0.05372688  1.51652217
H  0.02902175 -0.47964139  2.48780798
C -1.23691391  0.86191555  1.41864503
H -1.91316477  1.02857131  2.24405964
C -1.44772464  1.43828512  0.13518009
H -2.23399883  2.17037995  0.02468084
H  0.67823628 -0.11046125 -3.03346444
H  1.82069966 -1.02800732 -2.07892450
H  0.20300724 -1.63949727 -2.20359931
H  1.56399890 -2.43439762 -0.00315649
H  2.64421882 -1.18420724  0.40176260
H  1.70779050 -2.05302600  1.63438842
18
timestep         35
C -0.72345808  0.97964787 -0.97198764
H -1.09491225  1.22183211 -1.95675570
C  0.29673957 -0.01787656 -0.86986644
C  0.77268284 -0.71976614 -2.13700583
C  0.56825219 -0.53558698  0.45111826
C  1.65899913 -1.57508671  0.66465623
C -0.16948916 -0.05133838  1.50993945
H  0.00028980 -0.51363470  2.47111487
C -1.22845063  0.85831316  1.41616398
H -1.88332712  1.05277765  2.25265597
C -1.46056950  1.43900649  0.14233884
H -2.23882669  2.17572971  0.00834531
H  0.67521551 -0.10915681 -3.03464485
H  1.81906233 -1.01717816 -2.06818420
H  0.19500919 -1.64040728 -2.21954564
H  1.59833073 -2.45869566  0.02931804
H  2.63329411 -1.14566473  0.43132049
H  1.69533045 -2.06153803  1.63941014
18
timestep         37
C -0.72110772  0.98170304 -0.97455839
H -1.08933582  1.19541469 -1.96709818
C  0.30053170 -0.00175651 -0.87405894
C  0.76890347 -0.72367607 -2.13992975
C  0.56482327 -0.54534862  0.44885287
C  1.66128257 -1.58009514  0.67161327
C -0.16531038 -0.05104480  1.51019079
H -0.02671445 -0.54479305  2.46066710
C -1.22000813  0.85595684  1.40962091
H -1.84219397  1.08703959  2.26160923
C -1.47280562  1.43903642  0.15097291
H -2.24831725  2.17363810 -0.00821662
H  0.66579471 -0.10842511 -3.03376103
H  1.81913974 -1.00272839 -2.05487780
H  0.18626685 -1.63876381 -2.24598848
H  1.61785048 -2.47333239  0.04844295
H  2.62050568 -1.10376971  0.46887155
H  1.67737181 -2.04997899  1.65500040
18
timestep         39
C -0.72022235  0.98237204 -0.97750648
H -1.07694124  1.18891052 -1.97575161
C  0.30219340  0.01201830 -0.87315990
C  0.76605617 -0.72684803 -2.14121399
C  0.56284027 -0.55292977  0.43761068
C  1.66453364 -1.58669754  0.67853511
C -0.16238407 -0.05378589  1.51650556
H -0.04823108 -0.56877140  2.45892820
C -1.21209338  0.85573005  1.40087297
H -1.79381843  1.12609295  2.26972207
C -1.48278756  1.43790998  0.15756771
H -2.26292011  2.16377097 -0.01826753
H  0.65296397 -0.10818989 -3.03147904
H  1.81981501 -0.98742911 -2.04227000
H  0.17880020 -1.63485303 -2.27816811
H  1.62541015 -2.47737173  0.05142339
H  2.60739106 -1.06543636  0.51298920
H  1.65612894 -2.01894063  1.67913224
18
timestep         41
C -0.72219835  0.98272059 -0.97952052
H -1.06000117  1.20347623 -1.98129682
C  0.30273494  0.02136176 -0.86844310
C  0.76374204 -0.72829270 -2.14061934
C  0.56172939 -0.55784117  0.42020957
C  1.66764921 -1.59356821  0.68542338
C -0.16033460 -0.06020862  1.52642840
H -0.06128430 -0.58184903  2.46689704
C -1.20464625  0.85793624  1.39229556
H -1.74424572  1.16545767  2.27584661
C -1.48937717  1.43527268  0.15892291
H -2.28187384  2.14759891 -0.01697258
H  0.64035756 -0.10753827 -3.02805381
H  1.82026780 -0.97408360 -2.03366074
H  0.17467368 -1.62957680 -2.31027840
H  1.62659266 -2.47145347  0.04065084
H  2.59652229 -1.03710130  0.56037060
H  1.63373024 -1.97336097  1.70655292
18
timestep         43
C -0.72750439  0.98340582 -0.97996269
H -1.04044735  1.23714035 -1.98200289
C  0.30255807  0.02531142 -0.86267232
C  0.76165947 -0.72718979 -2.13800800
C  0.56100557 -0.56033304  0.40185864
C  1.66938406 -1.59897898  0.69194484
C -0.15879449 -0.07039133  1.53664635
H -0.06374961 -0.58152193  2.48327822
C -1.19708012  0.86232015  1.38596793
H -1.70017007  1.20205427  2.27920997
C -1.49232353  1.43099926  0.15345068
H -2.30261271  2.12762557 -0.00320778
H  0.63119477 -0.10492572 -3.02337023
H  1.82009174 -0.96486838 -2.03156577
H  0.17516305 -1.62422237 -2.33663604
H  1.62755849 -2.45807539  0.02239036
H  2.59079012 -1.02302029  0.60602853
H  1.61162252 -1.92280382  1.73112681
18
timestep         45
C -0.73537406  0.98444280 -0.97923393
H -1.02022548  1.28527025 -1.97661109
C  0.30129479  0.02415873 -0.85885509
C  0.75976988 -0.72312363 -2.13354849
C  0.56044077 -0.56128281  0.38827389
C  1.66877903 -1.60111978  0.69752692
C -0.15771510 -0.08365872  1.54408143
H -0.05435677 -0.56701688  2.50433159
C -1.18852964  0.86824743  1.38301599
H -1.66718355  1.23407220  2.27937705
C -1.49230342  1.42519174  0.14191240
H -2.32105269  2.10684342  0.01974825
H  0.62739553 -0.09867703 -3.01708882
H  1.81916433 -0.96070257 -2.03690712
H  0.18022261 -1.61988457 -2.35273645
H  1.63290796 -2.44157781  0.00438738
H  2.59233236 -1.02463273  0.64450333
H  1.59053077 -1.87989528  1.74836448
18
timestep         47
C -0.74403209  0.98530566 -0.97868267
H -1.00149434  1.34136189 -1.96526046
C  0.29801180  0.01908505 -0.85893382
C  0.75834799 -0.71620170 -2.12785183
C  0.56005026 -0.56177868  0.38363236
C  1.66550924 -1.59864851  0.70157346
C -0.15746231 -0.09857435  1.54685777
H -0.03284486 -0.53979805  2.52470699
C -1.17821925  0.87495510  1.38333021
H -1.64826930  1.26031771  2.27605020
C -1.49057604  1.41805414  0.12728588
H -2.33305335  2.08876409  0.04495298
H  0.62914918 -0.08758889 -3.00890450
H  1.81754437 -0.96095712 -2.04849344
H  0.18843673 -1.61689530 -2.35599851
H  1.64430169 -2.42693621 -0.00665568
H  2.60144583 -1.04077105  0.67165380
H  1.57091191 -1.85668814  1.75635564
18
timestep         49
C -0.75136466  0.98527306 -0.98007892
H -0.98634440  1.39808805 -1.95001043
C  0.29168350  0.01151433 -0.86295318
C  0.75789028 -0.70700438 -2.12193227
C  0.55992060 -0.56258479  0.38911670
C  1.66003810 -1.59129879  0.70378103
C -0.15864578 -0.11315861  1.54480455
H -0.00032562 -0.50384186  2.53913714
C -1.16582370  0.88176094  1.38573315
H -1.64304433  1.27964766  2.26910532
C -1.48843758  1.40976653  0.11375839
H -2.33600000  2.07727262  0.06403267
H  0.63505112 -0.07141495 -2.99887981
H  1.81560373 -0.96367560 -2.06309172
H  0.19746878 -1.61460769 -2.34617069
H  1.66013727 -2.41767980 -0.00698850
H  2.61603642 -1.06799073  0.68601892
H  1.55343399 -1.86051641  1.75461692
18
timestep         51
C -0.75573829  0.98383842 -0.98484932
H -0.97615406  1.44833863 -1.93461546
C  0.28172121  0.00250681 -0.86904527
C  0.75893071 -0.69638878 -2.11696123
C  0.55998077 -0.56377209  0.40258602
C  1.65353272 -1.58021270  0.70437188
C -0.16177167 -0.12531179  1.53933843
H  0.04037342 -0.46517839  2.54433796
C -1.15169181  0.88816465  1.38851567
H -1.64798163  1.29099598  2.25904562
C -1.48676226  1.40048758  0.10519811
H -2.32909570  2.07550643  0.07021916
H  0.64271244 -0.05110343 -2.98770840
H  1.81421980 -0.96621600 -2.07623518
H  0.20486047 -1.61161669 -2.32543938
H  1.67605132 -2.41433706  0.00306684
H  2.63224888 -1.10065129  0.68904428
H  1.53889918 -1.89140040  1.74269719
18
timestep         53
C -0.75660821  0.98098955 -0.99336837
H -0.97105558  1.48597899 -1.92363589
C  0.26832148 -0.00753872 -0.87423887
C  0.76186016 -0.68523118 -2.11389234
C  0.55984915 -0.56472006  0.41947621
C  1.64756459 -1.56773368  0.70403584
C -0.16689746 -0.13332607  1.53282185
H  0.08471303 -0.43046313  2.54019404
C -1.13684749  0.89385285  1.39013971
H -1.65755995  1.29397816  2.24755266
C -1.48579519  1.39048330  0.10369740
H -2.31242584  2.08420471  0.06089709
H  0.64959262 -0.02873433 -2.97674134
H  1.81463755 -0.96601440 -2.08353926
H  0.20889072 -1.60628904 -2.29821935
H  1.68607392 -2.41457096  0.01884707
H  2.64618747 -1.13131903  0.68418212
H  1.52756284 -1.94221390  1.72062895
18
timestep         55
C -0.75466448  0.97721793 -1.00460602
H -0.96990551  1.50629110 -1.92120442
C  0.25247663 -0.01878282 -0.87575459
C  0.76682081 -0.67421088 -2.11311443
C  0.55886158 -0.56448824  0.43454689
C  1.64365761 -1.55666916  0.70356636
C -0.17344082 -0.13629733  1.52768883
H  0.12690408 -0.40509966  2.52965526
C -1.12276699  0.89866857  1.38985079
H -1.66596060  1.28956096  2.23751985
C -1.48516539  1.38025654  0.10876215
H -2.28643798  2.10098606  0.03869106
H  0.65377990 -0.00712763 -2.96770322
H  1.81791077 -0.96116373 -2.08198755
H  0.20916528 -1.59743185 -2.27053963
H  1.68453448 -2.41462950  0.03249698
H  2.65550407 -1.15234596  0.67546631
H  1.51866145 -2.00159733  1.69074023
18
timestep         57
C -0.75147825  0.97324127 -1.01633041
H -0.97078093  1.50625114 -1.92967923
C  0.23564806 -0.03154290 -0.87223877
C  0.77367725 -0.66371079 -2.11428968
C  0.55630376 -0.56236606  0.44376722
C  1.64279628 -1.54937405  0.70340636
C -0.18019973 -0.13427387  1.52567537
H  0.16073296 -0.39190803  2.51753698
C -1.11102901  0.90258928  1.38797016
H -1.66865297  1.28026737  2.23225368
C -1.48403648  1.37055975  0.11748108
H -2.25285708  2.12150394  0.01072957
H  0.65454762  0.01084013 -2.96216297
H  1.82432084 -0.95067739 -2.07071139
H  0.20677166 -1.58489254 -2.24898079
H  1.66835933 -2.41060207  0.03577284
H  2.65960802 -1.15844730  0.66638331
H  1.51092576 -2.05807730  1.65835622
18
timestep         59
C -0.74882125  0.96956234 -1.02584689
H -0.97175726  1.48485306 -1.94843732
C  0.21926352 -0.04581479 -0.86441165
C  0.78202670 -0.65385224 -2.11645404
C  0.55176530 -0.55833561  0.44561864
C  1.64504177 -1.54709465  0.70337582
C -0.18557483 -0.12810423  1.52740579
H  0.18061190 -0.39090835  2.50885478
C -1.10297550  0.90570536  1.38574478
H -1.66330594  1.26979924  2.23419419
C -1.48139561  1.36229841  0.12564879
H -2.21586036  2.14172178 -0.01384752
H  0.65263178  0.02304002 -2.96094991
H  1.83325044 -0.93449278 -2.05110874
H  0.20409007 -1.56981898 -2.23931100
H  1.63876677 -2.39886568  0.02326676
H  2.65875198 -1.14889526  0.65945392
H  1.50381877 -2.10314249  1.63017998
18
timestep         61
C -0.74795838  0.96606681 -1.03098832
H -0.97171574  1.44368972 -1.97343484
C  0.20427855 -0.06097100 -0.85485432
C  0.79123689 -0.64462319 -2.11834505
C  0.54544832 -0.55324121  0.44137399
C  1.64939258 -1.54976376  0.70271544
C -0.18794621 -0.11907839  1.53243420
H  0.18265360 -0.39997587  2.50719237
C -1.09947567  0.90817224  1.38480647
H -1.64994451  1.26228797  2.24386874
C -1.47647887  1.35643690  0.12941601
H -2.18157922  2.15935894 -0.02726626
H  0.65018357  0.02876232 -2.96377678
H  1.84358768 -0.91332708 -2.02638839
H  0.20444577 -1.55439546 -2.24519309
H  1.60151853 -2.37671810 -0.00577258
H  2.65335602 -1.12786839  0.65622813
H  1.49841686 -2.13224429  1.61157321
18
timestep         63
C -0.74921505  0.96186324 -1.03091525
H -0.97099562  1.38768893 -1.99832468
C  0.19100336 -0.07580932 -0.84701638
C  0.80054543 -0.63602709 -2.11883997
C  0.53824970 -0.54859808  0.43433329
C  1.65400473 -1.55618610  0.70039579
C -0.18612056 -0.10851789  1.53966259
H  0.16559456 -0.41575531  2.51347064
C -1.10080405  0.91014502  1.38646321
H -1.63065059  1.26138621  2.25955797
C -1.46917769  1.35396175  0.12679428
H -2.15583241  2.17347903 -0.02584129
H  0.65030763  0.02904869 -2.96925240
H  1.85431362 -0.88844666 -2.00070203
H  0.21164771 -1.54114552 -2.26736580
H  1.56546878 -2.34394630 -0.04773178
H  2.64416907 -1.10252487  0.65721773
H  1.49703514 -2.14439470  1.60453667
18
timestep         65
C -0.75200900  0.95550335 -1.02637684
H -0.97161000  1.32520889 -2.01707777
C  0.17926549 -0.08896021 -0.84383978
C  0.80924594 -0.62818563 -2.11736352
C  0.53152234 -0.54611630  0.42837941
C  1.65678441 -1.56447897  0.69552439
C -0.17973574 -0.09745504  1.54790442
H  0.13151497 -0.43441385  2.52564720
C -1.10660021  0.91174249  1.39111943
H -1.60906621  1.26935258  2.27771105
C -1.46017618  1.35580308  0.11842859
H -2.14194567  2.18334339 -0.01106638
H  0.65618104  0.02658586 -2.97523520
H  1.86486456 -0.86135054 -1.97806933
H  0.22930554 -1.53213334 -2.30350111
H  1.53983791 -2.30436879 -0.09629991
H  2.63253322 -1.07984383  0.66174978
H  1.50169236 -2.14149701  1.60716871
18
timestep         67
C -0.75534463  0.94556630 -1.01937484
H -0.97664941  1.26654516 -2.02654586
C  0.16881598 -0.09948035 -0.84655181
C  0.81692082 -0.62135924 -2.11413840
C  0.52657866 -0.54711512  0.42644424
C  1.65612937 -1.57261349  0.68765426
C -0.16948417 -0.08647400  1.55631540
H  0.08616151 -0.45223711  2.53980942
C -1.11589581  0.91307718  1.39806358
H -1.58973624  1.28634524  2.29391340
C -1.45070322  1.36259810  0.10737364
H -2.14018600  2.18825842  0.01093612
H  0.66997316  0.02516809 -2.97930162
H  1.87512821 -0.83337217 -1.96134099
H  0.25987313 -1.52842316 -2.34872724
H  1.53142823 -2.26577975 -0.14425297
H  2.62007156 -1.06415564  0.66806268
H  1.51249613 -2.12793312  1.61452392
18
timestep         69
C -0.75854572  0.93137494 -1.01243368
H -0.98886561  1.22101652 -2.02705650
C  0.15976096 -0.10735409 -0.85412390
C  0.82362237 -0.61588399 -2.11018391
C  0.52414419 -0.55203551  0.42948052
C  1.65144877 -1.57891683  0.67687041
C -0.15702047 -0.07571518  1.56451981
H  0.03832814 -0.46625397  2.55230298
C -1.12723646  0.91432907  1.40570810
H -1.57724640  1.31022011  2.30412934
C -1.44202965  1.37436405  0.09796011
H -2.14859811  2.18844683  0.03138786
H  0.69196225  0.02883298 -2.97915151
H  1.88523360 -0.80530378 -1.95143478
H  0.30361889 -1.52999702 -2.39670147
H  1.54309576 -2.23779168 -0.18466521
H  2.60811134 -1.05653237  0.67378015
H  1.52715442 -2.11011905  1.62051883
18
timestep         71
C -0.76184971  0.91348777 -1.00774085
H -1.00912678  1.19411310 -2.02090627
C  0.15277030 -0.11363946 -0.86363016
C  0.82990773 -0.61205109 -2.10702702
C  0.52400975 -0.56022616  0.43630572
C  1.64325722 -1.58248415  0.66367133
C -0.14452621 -0.06501955  1.57246102
H -0.00203098 -0.47472318  2.56151895
C -1.13892337  0.91579766  1.41218691
H -1.57524022  1.33699525  2.30584145
C -1.43498937  1.39030243  0.09415304
H -2.16398539  2.18543231  0.04185921
H  0.72024048  0.04081955 -2.97295572
H  1.89537112 -0.77727192 -1.94705929
H  0.35800284 -1.53608909 -2.44102998
H  1.57373712 -2.22826406 -0.21167736
H  2.59735382 -1.05557660  0.67660268
H  1.54194558 -2.09531358  1.62014367
18
timestep         73
C -0.76652023  0.89370260 -1.00637673
H -1.03568644  1.18616755 -2.01057547
C  0.14890453 -0.12012378 -0.87137124
C  0.83669723 -0.60997273 -2.10618867
C  0.52504474 -0.57009234  0.44431234
C  1.63294508 -1.58346536  0.64878271
C -0.13408819 -0.05418289  1.58013547
H -0.02633823 -0.47698082  2.56807789
C -1.14933693  0.91788929  1.41607121
H -1.58559246  1.36180047  2.29869320
C -1.42976334  1.40887422  0.09802129
H -2.18225033  2.18119438  0.03731447
H  0.75117947  0.06251973 -2.95973439
H  1.90572812 -0.74903846 -1.94514865
H  0.41798721 -1.54565385 -2.47670381
H  1.61890298 -2.23980299 -0.22134528
H  2.58782865 -1.05847965  0.67499805
H  1.55330283 -2.08944178  1.61093820
18
timestep         75
C -0.77436582  0.87453503 -1.00786258
H -1.06468632  1.19293374 -1.99818435
C  0.14907915 -0.12856731 -0.87431436
C  0.84500822 -0.60948426 -2.10861656
C  0.52557810 -0.57958172  0.45068560
C  1.62244493 -1.58307169  0.63306337
C -0.12714743 -0.04323410  1.58736015
H -0.02941178 -0.47259691  2.57351139
C -1.15724656  0.92104300  1.41691157
H -1.60802386  1.37993583  2.28444528
C -1.42597037  1.42808679  0.10891535
H -2.19863198  2.17717495  0.01803190
H  0.78045729  0.09271097 -2.93979317
H  1.91646805 -0.72058512 -1.94209015
H  0.47739138 -1.55757953 -2.50113708
H  1.67121421 -2.26843576 -0.21310161
H  2.57905001 -1.06178596  0.66867878
H  1.55871873 -2.09489319  1.59331177
18
timestep         77
C -0.78685935  0.85835776 -1.01026359
H -1.09152911  1.20750696 -1.98580001
C  0.15338422 -0.13983604 -0.87127734
C  0.85566739 -0.61012698 -2.11427305
C  0.52400823 -0.58686260  0.45358658
C  1.61385327 -1.58312711  0.61752934
C -0.12420965 -0.03259178  1.59365785
H -0.01032676 -0.46057467  2.57867563
C -1.16201136  0.92562494  1.41538234
H -1.64019920  1.38778904  2.26634571
C -1.42293400  1.44585724  0.12367984
H -2.20884337  2.17440935 -0.01031921
H  0.80418405  0.12747589 -2.91514167
H  1.92771350 -0.69258929 -1.93533728
H  0.53070555 -1.57049902 -2.51450389
H  1.72108432 -2.30577543 -0.19140694
H  2.57036443 -1.06207426  0.65865645
H  1.55662347 -2.10983069  1.57010923
18
timestep         79
C -0.80426662  0.84654450 -1.01091933
H -1.11237712  1.22259325 -1.97531259
C  0.16059774 -0.15332405 -0.86339570
C  0.86910031 -0.61123356 -2.12202481
C  0.51941526 -0.59095726  0.45281230
C  1.60892641 -1.58527970  0.60333235
C -0.12485945 -0.02299137  1.59829480
H  0.02770287 -0.43941901  2.58303357
C -1.16362017  0.93182869  1.41297451
H -1.67810771  1.38357239  2.24821619
C -1.41999783  1.46037933  0.13783664
H -2.21080281  2.17443858 -0.03864016
H  0.81970854  0.16105959 -2.88963302
H  1.93963678 -0.66650776 -1.92454701
H  0.57442865 -1.58252199 -2.51934916
H  1.75879127 -2.34315314 -0.16560602
H  2.56135903 -1.05699937  0.64684575
H  1.54620223 -2.12947479  1.54567977
18
timestep         81
C -0.82520688  0.83898198 -1.00755834
H -1.12522087  1.23230396 -1.96760384
C  0.16819458 -0.16696835 -0.85369392
C  0.88524690 -0.61208364 -2.12989328
C  0.51194061 -0.59207572  0.44969161
C  1.60853089 -1.59032812  0.59155621
C -0.12801188 -0.01520485  1.60046431
H  0.07807230 -0.40820189  2.58508561
C -1.16257340  0.93961034  1.41137211
H -1.71653200  1.36789516  2.23362567
C -1.41684385  1.47047034  0.14728250
H -2.20528694  2.17949357 -0.05775775
H  0.82594666  0.18742282 -2.86838583
H  1.95268480 -0.64422605 -1.91161730
H  0.60737211 -1.59136875 -2.51961766
H  1.77727538 -2.37431797 -0.14667435
H  2.55219708 -1.04657636  0.63548134
H  1.52791833 -2.14827790  1.52445245
18
timestep         83
C -0.84688095  0.83415993 -0.99931410
H -1.13035340  1.23323789 -1.96200674
C  0.17296133 -0.17791233 -0.84591921
C  0.90358739 -0.61204859 -2.13562356
C  0.50278225 -0.59149494  0.44630248
C  1.61231190 -1.59803218  0.58292788
C -0.13229635 -0.00970359  1.59955614
H  0.13211482 -0.36792706  2.58350650
C -1.15965136  0.94867172  1.41177137
H -1.74962406  1.34403853  2.22541539
C -1.41374086  1.47582446  0.14980552
H -2.19465229  2.19128407 -0.06160337
H  0.82336560  0.20177760 -2.85628270
H  1.96765075 -0.62740686 -1.89975368
H  0.63012806 -1.59497723 -2.51925048
H  1.77387228 -2.39527698 -0.14260533
H  2.54390216 -1.03382375  0.62662212
H  1.50428069 -2.16177718  1.50954674
18
timestep         85
C -0.86591587  0.82981444 -0.98718730
H -1.13022247  1.22492123 -1.95694475
C  0.17205947 -0.18359157 -0.84308694
C  0.92321972 -0.61066144 -2.13738104
C  0.49379962 -0.59102289  0.44437936
C  1.61875963 -1.60736301  0.57765624
C -0.13645965 -0.00645771  1.59541015